[Molden Format]
[Atoms] Angs
C     1    6         1.0248323800        0.0000000000        0.0000000000
C     2    6         0.0000000000       -1.0248323800        0.0000000000
C     3    6        -1.0248323800        0.0000000000        0.0000000000
C     4    6         0.0000000000        1.0248323800        0.0000000000
H     5    1         2.1005277400        0.0000000000        0.0000000000
H     6    1         0.0000000000       -2.1005277400        0.0000000000
H     7    1        -2.1005277400        0.0000000000        0.0000000000
H     8    1         0.0000000000        2.1005277400        0.0000000000
[GTO]
   1 0
 s    6  1.00
  0.3047524900D+04  0.1834737091D-02
  0.4573695200D+03  0.1403732293D-01
  0.1039486800D+03  0.6884262165D-01
  0.2921015500D+02  0.2321844388D+00
  0.9286663000D+01  0.4679413476D+00
  0.3163927000D+01  0.3623119882D+00
 s    3  1.00
  0.7868272300D+01 -0.1193324245D+00
  0.1881288500D+01 -0.1608541561D+00
  0.5442492600D+00  0.1143456443D+01
 s    1  1.00
  0.1687144800D+00  0.1000000000D+01
 p    3  1.00
  0.7868272300D+01  0.6899906693D-01
  0.1881288500D+01  0.3164239597D+00
  0.5442492600D+00  0.7443082892D+00
 p    1  1.00
  0.1687144800D+00  0.1000000000D+01
  
   2 0
 s    6  1.00
  0.3047524900D+04  0.1834737091D-02
  0.4573695200D+03  0.1403732293D-01
  0.1039486800D+03  0.6884262165D-01
  0.2921015500D+02  0.2321844388D+00
  0.9286663000D+01  0.4679413476D+00
  0.3163927000D+01  0.3623119882D+00
 s    3  1.00
  0.7868272300D+01 -0.1193324245D+00
  0.1881288500D+01 -0.1608541561D+00
  0.5442492600D+00  0.1143456443D+01
 s    1  1.00
  0.1687144800D+00  0.1000000000D+01
 p    3  1.00
  0.7868272300D+01  0.6899906693D-01
  0.1881288500D+01  0.3164239597D+00
  0.5442492600D+00  0.7443082892D+00
 p    1  1.00
  0.1687144800D+00  0.1000000000D+01
  
   3 0
 s    6  1.00
  0.3047524900D+04  0.1834737091D-02
  0.4573695200D+03  0.1403732293D-01
  0.1039486800D+03  0.6884262165D-01
  0.2921015500D+02  0.2321844388D+00
  0.9286663000D+01  0.4679413476D+00
  0.3163927000D+01  0.3623119882D+00
 s    3  1.00
  0.7868272300D+01 -0.1193324245D+00
  0.1881288500D+01 -0.1608541561D+00
  0.5442492600D+00  0.1143456443D+01
 s    1  1.00
  0.1687144800D+00  0.1000000000D+01
 p    3  1.00
  0.7868272300D+01  0.6899906693D-01
  0.1881288500D+01  0.3164239597D+00
  0.5442492600D+00  0.7443082892D+00
 p    1  1.00
  0.1687144800D+00  0.1000000000D+01
  
   4 0
 s    6  1.00
  0.3047524900D+04  0.1834737091D-02
  0.4573695200D+03  0.1403732293D-01
  0.1039486800D+03  0.6884262165D-01
  0.2921015500D+02  0.2321844388D+00
  0.9286663000D+01  0.4679413476D+00
  0.3163927000D+01  0.3623119882D+00
 s    3  1.00
  0.7868272300D+01 -0.1193324245D+00
  0.1881288500D+01 -0.1608541561D+00
  0.5442492600D+00  0.1143456443D+01
 s    1  1.00
  0.1687144800D+00  0.1000000000D+01
 p    3  1.00
  0.7868272300D+01  0.6899906693D-01
  0.1881288500D+01  0.3164239597D+00
  0.5442492600D+00  0.7443082892D+00
 p    1  1.00
  0.1687144800D+00  0.1000000000D+01
  
   5 0
 s    3  1.00
  0.1873113700D+02  0.3349460400D-01
  0.2825394400D+01  0.2347269500D+00
  0.6401216900D+00  0.8137573301D+00
 s    1  1.00
  0.1612777600D+00  0.1000000000D+01
  
   6 0
 s    3  1.00
  0.1873113700D+02  0.3349460400D-01
  0.2825394400D+01  0.2347269500D+00
  0.6401216900D+00  0.8137573301D+00
 s    1  1.00
  0.1612777600D+00  0.1000000000D+01
  
   7 0
 s    3  1.00
  0.1873113700D+02  0.3349460400D-01
  0.2825394400D+01  0.2347269500D+00
  0.6401216900D+00  0.8137573301D+00
 s    1  1.00
  0.1612777600D+00  0.1000000000D+01
  
   8 0
 s    3  1.00
  0.1873113700D+02  0.3349460400D-01
  0.2825394400D+01  0.2347269500D+00
  0.6401216900D+00  0.8137573301D+00
 s    1  1.00
  0.1612777600D+00  0.1000000000D+01


[MO]
 Sym=      3.1
 Ene=     -11.2309
 Spin= Alpha
 Occup=    2.000000
1 0.000000007522118
2 0.000000000922518
3 -0.000000003325750
4 -0.000000000035512
5 0.000172461347033
6 0.0
7 0.000000004362000
8 -0.002173713631746
9 0.0
10 0.70437120922737
11 0.017671201352284
12 -0.010645029693487
13 0.000000002578041
14 0.000868386097239
15 0.0
16 -0.000000000402539
17 -0.003315383583573
18 0.0
19 -0.000000007534968
20 -0.000000000927056
21 0.000000003364457
22 -0.000000000036743
23 0.000172461347033
24 0.0
25 0.000000004381554
26 -0.002173713631747
27 0.0
28 -0.70437120726102
29 -0.017671201302105
30 0.010645029643296
31 0.000000002578041
32 0.000868386094721
33 0.0
34 -0.000000000402541
35 -0.003315383563182
36 0.0
37 -0.000000000310750
38 -0.000000001670108
39 -0.000320872170476
40 0.000434215677337
41 0.000000000310421
42 0.000000001674183
43 0.000320872169453
44 -0.000434215678289
 Sym=      4.1
 Ene=     -11.2308
 Spin= Alpha
 Occup=    2.000000
1 0.004601863932905
2 0.001626735333346
3 -0.013877186208595
4 -0.000440803891774
5 -0.000000000331341
6 0.0
7 0.007012181280990
8 0.000000000811567
9 0.0
10 -0.70439597197210
11 -0.017975697363475
12 0.017989655471494
13 -0.000000002183382
14 -0.000901890414855
15 0.0
16 0.000000001835383
17 0.007312586154241
18 0.0
19 0.004601863932894
20 0.001626735333346
21 -0.013877186208597
22 0.000440803891774
23 0.000000000331822
24 0.0
25 -0.007012181280991
26 -0.000000000817636
27 0.0
28 -0.70439597393838
29 -0.017975697412805
30 0.017989655501213
31 0.000000002183382
32 0.000901890417279
33 0.0
34 -0.000000001835384
35 -0.007312586163502
36 0.0
37 0.000117317776744
38 -0.001461709316767
39 0.000366973260963
40 0.000344000203270
41 0.000117317776744
42 -0.001461709316767
43 0.000366973261859
44 0.000344000202061
 Sym=      2.1
 Ene=     -11.2306
 Spin= Alpha
 Occup=    2.000000
1 0.70452167121208
2 0.017280424442973
3 -0.011275447092195
4 -0.000171830183932
5 -0.000000003052727
6 0.0
7 0.002722846060143
8 0.000000000664591
9 0.0
10 -0.000000006871840
11 0.000000000582552
12 -0.000000003225576
13 -0.000025414193681
14 -0.000000000034416
15 0.0
16 0.002350569255751
17 -0.000000004877894
18 0.0
19 -0.70452167063438
20 -0.017280424428599
21 0.011275447076310
22 -0.000171830183815
23 -0.000000003052727
24 0.0
25 0.002722846053977
26 0.000000000664591
27 0.0
28 0.000000006875239
29 -0.000000000583695
30 0.000000003237727
31 -0.000025414193680
32 -0.000000000034230
33 0.0
34 0.002350569255752
35 -0.000000004884196
36 0.0
37 -0.000272080139545
38 0.000885217631631
39 -0.000000000368920
40 -0.000000001937187
41 0.000272080139230
42 -0.000885217631776
43 0.000000000368852
44 0.000000001938554
 Sym=      1.1
 Ene=     -11.2306
 Spin= Alpha
 Occup=    2.000000
1 0.70454381953745
2 0.017532000550917
3 -0.019411373228474
4 -0.000141480404970
5 -0.000000002606491
6 0.0
7 0.007544753498912
8 0.000000002199576
9 0.0
10 0.004130928987426
11 -0.001395568531245
12 0.014858019658718
13 -0.000000000458315
14 -0.000227029923217
15 0.0
16 0.000000000958175
17 0.007711003443610
18 0.0
19 0.70454382011513
20 0.017532000565086
21 -0.019411373237719
22 0.000141480405110
23 0.000000002606491
24 0.0
25 -0.007544753501138
26 -0.000000002199574
27 0.0
28 0.004130928987422
29 -0.001395568531244
30 0.014858019658714
31 0.000000000458337
32 0.000227029923217
33 0.0
34 -0.000000000960102
35 -0.007711003443606
36 0.0
37 -0.000383765519501
38 -0.000184397117606
39 -0.000083428467586
40 0.001673570485996
41 -0.000383765519724
42 -0.000184397116877
43 -0.000083428467586
44 0.001673570485995
 Sym=      5.1
 Ene=      -1.1608
 Spin= Alpha
 Occup=    2.000000
1 -0.10904116837272
2 0.21651960148482
3 0.12319457519170
4 -0.11463957685650
5 0.000000000283768
6 0.0
7 -0.016938398380428
8 0.000000000013301
9 0.0
10 -0.10947738358982
11 0.21649689378375
12 0.12323950597624
13 -0.000000000245659
14 0.11460615087500
15 0.0
16 -0.000000000021662
17 0.016959816517414
18 0.0
19 -0.10904116837273
20 0.21651960148481
21 0.12319457519180
22 0.11463957685640
23 -0.000000000283773
24 0.0
25 0.016938398380702
26 -0.000000000013217
27 0.0
28 -0.10947738358983
29 0.21649689378385
30 0.12323950597604
31 0.000000000245657
32 -0.11460615087509
33 0.0
34 0.000000000021712
35 -0.016959816517280
36 0.0
37 0.036941247513803
38 0.005392300766842
39 0.036947357241585
40 0.005398386476227
41 0.036941247513774
42 0.005392300767012
43 0.036947357241647
44 0.005398386476215
 Sym=      6.1
 Ene=      -0.8599
 Spin= Alpha
 Occup=    2.000000
1 0.000001519047800
2 -0.000003099048328
3 -0.000003018700466
4 -0.000000343895902
5 -0.16777404685012
6 0.0
7 -0.000000193484688
8 -0.029146636829643
9 0.0
10 -0.14271807550125
11 0.29035136724174
12 0.28285075704662
13 -0.000001791286473
14 -0.032328169318514
15 0.0
16 -0.000000311306357
17 -0.018136813774932
18 0.0
19 -0.000001519047817
20 0.000003099048332
21 0.000003018700229
22 -0.000000343895849
23 -0.16777404685013
24 0.0
25 -0.000000193484543
26 -0.029146636829558
27 0.0
28 0.14271807550123
29 -0.29035136724187
30 -0.28285075704587
31 -0.000001791286486
32 -0.032328169318391
33 0.0
34 -0.000000311306281
35 -0.018136813774684
36 0.0
37 -0.000001469159150
38 -0.000000511162736
39 0.13769584526489
40 0.047914186339001
41 0.000001469159085
42 0.000000511163184
43 -0.13769584526487
44 -0.047914186340006
 Sym=      7.1
 Ene=      -0.8598
 Spin= Alpha
 Occup=    2.000000
1 -0.14231414528314
2 0.29036433302574
3 0.28284967508700
4 0.032236748748508
5 -0.000001790277103
6 0.0
7 0.018134428804781
8 -0.000000311011805
9 0.0
10 -0.000001522982393
11 0.000003098796522
12 0.000003018897277
13 0.16781240009747
14 -0.000000345199582
15 0.0
16 0.029163294449801
17 -0.000000193615850
18 0.0
19 0.14231414528316
20 -0.29036433302549
21 -0.28284967508772
22 0.032236748748525
23 -0.000001790277058
24 0.0
25 0.018134428804387
26 -0.000000311011992
27 0.0
28 0.000001522982389
29 -0.000003098796590
30 -0.000003018896582
31 0.16781240009753
32 -0.000000345199803
33 0.0
34 0.029163294449668
35 -0.000000193615970
36 0.0
37 0.13766706983310
38 0.047902500745309
39 0.000001469725291
40 0.000000511472737
41 -0.13766706983315
42 -0.047902500745440
43 -0.000001469725262
44 -0.000000511472596
 Sym=      8.1
 Ene=      -0.6918
 Spin= Alpha
 Occup=    2.000000
1 0.014424277174217
2 -0.026988368697512
3 -0.073882674321743
4 -0.21936763877938
5 -0.000000000159492
6 0.0
7 -0.065854178356259
8 -0.000000000079247
9 0.0
10 0.030454410806632
11 -0.061001580026089
12 -0.079615415228613
13 0.000000000190560
14 0.25364653950737
15 0.0
16 0.000000000101330
17 0.10343199240001
18 0.0
19 0.014424277174180
20 -0.026988368697402
21 -0.073882674321183
22 0.21936763877923
23 0.000000000159875
24 0.0
25 0.065854178356362
26 0.000000000079817
27 0.0
28 0.030454410806704
29 -0.061001580026382
30 -0.079615415229632
31 -0.000000000190530
32 -0.25364653950722
33 0.0
34 -0.000000000101054
35 -0.10343199240012
36 0.0
37 -0.12764677943086
38 -0.078070127233183
39 -0.16351028670061
40 -0.090342997380299
41 -0.12764677943095
42 -0.078070127233468
43 -0.16351028670071
44 -0.090342997379586
 Sym=      9.1
 Ene=      -0.6914
 Spin= Alpha
 Occup=    2.000000
1 -0.074711917122836
2 0.15673558554616
3 0.034374429491706
4 0.17953695057578
5 0.000000000197425
6 0.0
7 0.17734882413406
8 0.000000000160234
9 0.0
10 0.069746401300508
11 -0.14690129225082
12 -0.017175775376489
13 0.000000000082822
14 0.12663393108036
15 0.0
16 0.000000000118455
17 0.15838792774804
18 0.0
19 -0.074711917122882
20 0.15673558554645
21 0.034374429492261
22 -0.17953695057595
23 -0.000000000197348
24 0.0
25 -0.17734882413355
26 -0.000000000158889
27 0.0
28 0.069746401300583
29 -0.14690129224994
30 -0.017175775379889
31 -0.000000000082706
32 -0.12663393108125
33 0.0
34 -0.000000000117925
35 -0.15838792774501
36 0.0
37 0.17654236963076
38 0.064361306130927
39 -0.14395895473765
40 -0.045503839168999
41 0.17654236963056
42 0.064361306131058
43 -0.14395895473732
44 -0.045503839169932
 Sym=     10.1
 Ene=      -0.5279
 Spin= Alpha
 Occup=    2.000000
1 0.000000000933755
2 0.000000000044678
3 -0.000000000046908
4 -0.000000000076046
5 0.32054451257810
6 0.0
7 0.000000000044827
8 0.14059723331195
9 0.0
10 0.000000000853824
11 0.000000000030160
12 -0.000000000133001
13 -0.32057171884169
14 0.000000000022910
15 0.0
16 -0.14062614101795
17 -0.000000000121134
18 0.0
19 0.000000000933816
20 0.000000000044755
21 -0.000000000047742
22 0.000000000076160
23 -0.32054451257809
24 0.0
25 -0.000000000044511
26 -0.14059723331193
27 0.0
28 0.000000000853821
29 0.000000000030150
30 -0.000000000132891
31 0.32057171884199
32 -0.000000000022863
33 0.0
34 0.14062614101832
35 0.000000000121280
36 0.0
37 -0.000000000180808
38 -0.000000000237622
39 -0.000000000134886
40 -0.000000000211620
41 -0.000000000180393
42 -0.000000000236131
43 -0.000000000134902
44 -0.000000000211888
 Sym=     11.1
 Ene=      -0.5017
 Spin= Alpha
 Occup=    2.000000
1 0.000000387935425
2 -0.000000795398263
3 -0.000001592666077
4 0.000004027487930
5 -0.23661695248785
6 0.0
7 0.000002462625936
8 -0.096205227486980
9 0.0
10 -0.032580146320267
11 0.065885164298940
12 0.13201498316131
13 -0.000002856284232
14 0.33359656372914
15 0.0
16 -0.000001161196918
17 0.20397613356521
18 0.0
19 -0.000000387935424
20 0.000000795398926
21 0.000001592667553
22 0.000004027487402
23 -0.23661695248783
24 0.0
25 0.000002462629306
26 -0.096205227487308
27 0.0
28 0.032580146320287
29 -0.065885164298984
30 -0.13201498316372
31 -0.000002856284190
32 0.33359656372840
33 0.0
34 -0.000001161197217
35 0.20397613356851
36 0.0
37 0.000002411975322
38 0.000001847254321
39 -0.19975411011913
40 -0.15297667008644
41 -0.000002411975420
42 -0.000001847252216
43 0.19975411011887
44 0.15297667008527
 Sym=     12.1
 Ene=      -0.5017
 Spin= Alpha
 Occup=    2.000000
1 0.032181614287100
2 -0.065886603048753
3 -0.13192345366008
4 0.33358919749158
5 0.000002856795632
6 0.0
7 0.20396967548637
8 0.000001161672594
9 0.0
10 0.000000393880852
11 -0.000000795503492
12 -0.000001593904030
13 -0.23659525042295
14 -0.000004027518086
15 0.0
16 -0.096196771928777
17 -0.000002462555900
18 0.0
19 -0.032181614287053
20 0.065886603049116
21 0.13192345365909
22 0.33358919749155
23 0.000002856795547
24 0.0
25 0.20396967548552
26 0.000001161671976
27 0.0
28 -0.000000393880858
29 0.000000795503787
30 0.000001593904598
31 -0.23659525042278
32 -0.000004027518781
33 0.0
34 -0.096196771928325
35 -0.000002462556116
36 0.0
37 0.19977199920358
38 0.15300280722049
39 0.000002411553787
40 0.000001846875823
41 -0.19977199920354
42 -0.15300280722083
43 -0.000002411553961
44 -0.000001846875088
 Sym=     14.1
 Ene=      -0.2630
 Spin= Alpha
 Occup=    1.448469
1 0.0
2 0.0
3 0.0
4 0.0
5 0.0
6 -0.41330438102575
7 0.0
8 0.0
9 -0.32556523366381
10 0.0
11 0.0
12 0.0
13 0.0
14 0.0
15 0.034031862773306
16 0.0
17 0.0
18 0.085547772875510
19 0.0
20 0.0
21 0.0
22 0.0
23 0.0
24 0.034035587041809
25 0.0
26 0.0
27 0.085571993804175
28 0.0
29 0.0
30 0.0
31 0.0
32 0.0
33 -0.41333677543701
34 0.0
35 0.0
36 -0.32555364460209
37 0.0
38 0.0
39 0.0
40 0.0
41 0.0
42 0.0
43 0.0
44 0.0
 Sym=     13.1
 Ene=      -0.2630
 Spin= Alpha
 Occup=    1.448469
1 0.0
2 0.0
3 0.0
4 0.0
5 0.0
6 -0.034035587041735
7 0.0
8 0.0
9 -0.085571993804191
10 0.0
11 0.0
12 0.0
13 0.0
14 0.0
15 0.41333677543701
16 0.0
17 0.0
18 0.32555364460209
19 0.0
20 0.0
21 0.0
22 0.0
23 0.0
24 0.41330438102577
25 0.0
26 0.0
27 0.32556523366384
28 0.0
29 0.0
30 0.0
31 0.0
32 0.0
33 -0.034031862773363
34 0.0
35 0.0
36 -0.085547772875642
37 0.0
38 0.0
39 0.0
40 0.0
41 0.0
42 0.0
43 0.0
44 0.0
 Sym=     16.1
 Ene=       0.1117
 Spin= Alpha
 Occup=    0.551531
1 0.0
2 0.0
3 0.0
4 0.0
5 0.0
6 0.52558167605270
7 0.0
8 0.0
9 0.45843611873067
10 0.0
11 0.0
12 0.0
13 0.0
14 0.0
15 -0.078248857794237
16 0.0
17 0.0
18 -0.047287992375287
19 0.0
20 0.0
21 0.0
22 0.0
23 0.0
24 0.078241661005319
25 0.0
26 0.0
27 0.047298848430726
28 0.0
29 0.0
30 0.0
31 0.0
32 0.0
33 -0.52561744934666
34 0.0
35 0.0
36 -0.45838936661780
37 0.0
38 0.0
39 0.0
40 0.0
41 0.0
42 0.0
43 0.0
44 0.0
 Sym=     15.1
 Ene=       0.1117
 Spin= Alpha
 Occup=    0.551531
1 0.0
2 0.0
3 0.0
4 0.0
5 0.0
6 -0.078241661005380
7 0.0
8 0.0
9 -0.047298848430780
10 0.0
11 0.0
12 0.0
13 0.0
14 0.0
15 0.52561744934662
16 0.0
17 0.0
18 0.45838936661787
19 0.0
20 0.0
21 0.0
22 0.0
23 0.0
24 -0.52558167605272
25 0.0
26 0.0
27 -0.45843611873063
28 0.0
29 0.0
30 0.0
31 0.0
32 0.0
33 0.078248857794185
34 0.0
35 0.0
36 0.047287992375252
37 0.0
38 0.0
39 0.0
40 0.0
41 0.0
42 0.0
43 0.0
44 0.0
 Sym=     17.1
 Ene=       0.2761
 Spin= Alpha
 Occup=    0.000000
1 -0.038577722154022
2 0.028716255189445
3 0.83821372127260
4 0.15319105732461
5 -0.000000000007768
6 0.0
7 0.45898673303275
8 -0.000000000045930
9 0.0
10 -0.038684482949620
11 0.029105106990569
12 0.83695908578241
13 0.000000000035587
14 -0.15334878989199
15 0.0
16 0.000000000116562
17 -0.46260287305125
18 0.0
19 -0.038577722154045
20 0.028716255189538
21 0.83821372127299
22 -0.15319105732453
23 0.000000000007576
24 0.0
25 -0.45898673303351
26 0.000000000045280
27 0.0
28 -0.038684482949763
29 0.029105106990832
30 0.83695908578449
31 -0.000000000035617
32 0.15334878989230
33 0.0
34 -0.000000000116589
35 0.46260287305291
36 0.0
37 -0.046521082988313
38 -1.08571790071148
39 -0.046607680416169
40 -1.08914084036130
41 -0.046521082988416
42 -1.08571790071259
43 -0.046607680416048
44 -1.08914084036392
 Sym=     18.1
 Ene=       0.2929
 Spin= Alpha
 Occup=    0.000000
1 0.058366096695153
2 -0.16716948890831
3 0.60275350171672
4 -0.062924445838017
5 -0.000000000296307
6 0.0
7 -1.67212868847313
8 -0.000000000660010
9 0.0
10 -0.058375321955777
11 0.16712118679611
12 -0.60470413839686
13 -0.000000000291941
14 -0.062589470231753
15 0.0
16 -0.000000000692069
17 -1.67104213952620
18 0.0
19 0.058366096695325
20 -0.16716948890876
21 0.60275350171390
22 0.062924445838514
23 0.000000000295880
24 0.0
25 1.67212868847688
26 0.000000000657479
27 0.0
28 -0.058375321956218
29 0.16712118679672
30 -0.60470413838999
31 0.000000000291680
32 0.062589470232241
33 0.0
34 0.000000000691399
35 1.67104213952878
36 0.0
37 0.031231208546547
38 1.55036110579520
39 -0.031131798268128
40 -1.54786757664160
41 0.031231208546406
42 1.55036110580032
43 -0.031131798267971
44 -1.54786757664766
 Sym=     19.1
 Ene=       0.3082
 Spin= Alpha
 Occup=    0.000000
1 -0.000000413255430
2 0.000000499475414
3 0.000007722978820
4 0.000000463755297
5 0.13513539673367
6 0.0
7 0.000002358835198
8 0.69923163246602
9 0.0
10 -0.094010496358202
11 0.11328304779833
12 1.75178616887582
13 -0.000000596131550
14 -0.10540765161654
15 0.0
16 -0.000003083802910
17 -0.53595031531631
18 0.0
19 0.000000413255658
20 -0.000000499476099
21 -0.000007722976098
22 0.000000463755247
23 0.13513539673364
24 0.0
25 0.000002358840618
26 0.69923163246583
27 0.0
28 0.094010496357839
29 -0.11328304779759
30 -1.75178616887600
31 -0.000000596131570
32 -0.10540765161576
33 0.0
34 -0.000003083803008
35 -0.53595031530951
36 0.0
37 0.000000108020526
38 -0.000006388709758
39 0.024517020228022
40 -1.45020019898643
41 -0.000000108020489
42 0.000006388714167
43 -0.024517020227982
44 1.45020019897899
 Sym=     20.1
 Ene=       0.3083
 Spin= Alpha
 Occup=    0.000000
1 -0.093900733447878
2 0.11328913825076
3 1.75227571253640
4 0.10527140362308
5 -0.000000595329326
6 0.0
7 0.53539543458814
8 -0.000003081501842
9 0.0
10 0.000000414843728
11 -0.000000499107325
12 -0.000007720486486
13 -0.13520408771492
14 0.000000464790817
15 0.0
16 -0.69964261615902
17 0.000002362951664
18 0.0
19 0.093900733447667
20 -0.11328913825027
21 -1.75227571253622
22 0.10527140362286
23 -0.000000595329139
24 0.0
25 0.53539543458477
26 -0.000003081502135
27 0.0
28 -0.000000414843537
29 0.000000499106907
30 0.000007720486994
31 -0.13520408771520
32 0.000000464790535
33 0.0
34 -0.69964261615940
35 0.000002362948720
36 0.0
37 0.024533477717782
38 -1.44974217868631
39 -0.000000108165970
40 0.000006392250312
41 -0.024533477717827
42 1.44974217868236
43 0.000000108165892
44 -0.000006392247427
 Sym=     21.1
 Ene=       0.3880
 Spin= Alpha
 Occup=    0.000000
1 -0.062203136082850
2 0.050489986799979
3 1.14608497913048
4 -0.26341996066569
5 -0.000000345673647
6 0.0
7 -1.68256359007249
8 -0.000004214288314
9 0.0
10 0.000000241524293
11 -0.000000194451759
12 -0.000004418292172
13 -0.089746183213136
14 -0.000001014270175
15 0.0
16 -1.09373591009746
17 -0.000006479230033
18 0.0
19 0.062203136083004
20 -0.050489986799842
21 -1.14608497913744
22 -0.26341996066556
23 -0.000000345673956
24 0.0
25 -1.68256359007658
26 -0.000004214288878
27 0.0
28 -0.000000241524427
29 0.000000194451535
30 0.000004418298855
31 -0.089746183212961
32 -0.000001014270119
33 0.0
34 -1.09373591009778
35 -0.000006479234288
36 0.0
37 0.010262211292178
38 1.34185867408614
39 -0.000000039739382
40 -0.000005165019402
41 -0.010262211292107
42 -1.34185867408644
43 0.000000039739367
44 0.000005165020127
 Sym=     22.1
 Ene=       0.3881
 Spin= Alpha
 Occup=    0.000000
1 -0.000000239023807
2 0.000000194487569
3 0.000004413016620
4 -0.000001014633523
5 0.089766971433289
6 0.0
7 -0.000006480679845
8 1.09406466225518
9 0.0
10 -0.062588643153161
11 0.050491734109265
12 1.14689374531633
13 -0.000000345688940
14 0.26337139924313
15 0.0
16 -0.000004211994432
17 1.68237187322614
18 0.0
19 0.000000239023782
20 -0.000000194487558
21 -0.000004413015468
22 -0.000001014633581
23 0.089766971433368
24 0.0
25 -0.000006480678825
26 1.09406466225513
27 0.0
28 0.062588643153189
29 -0.050491734109250
30 -1.14689374531790
31 -0.000000345688959
32 0.26337139924309
33 0.0
34 -0.000004211994481
35 1.68237187322699
36 0.0
37 0.000000039402377
38 0.000005168958168
39 0.010284237489920
40 1.34127079115160
41 -0.000000039402299
42 -0.000005168957680
43 -0.010284237489824
44 -1.34127079115139
 Sym=     23.1
 Ene=       0.5047
 Spin= Alpha
 Occup=    0.000000
1 0.000000000763479
2 0.000000000125272
3 0.000000002963093
4 -0.000000000159464
5 0.25637682155574
6 0.0
7 -0.000000003459009
8 1.77329066834962
9 0.0
10 -0.000000000597985
11 -0.000000000073662
12 -0.000000003066331
13 0.25639520928591
14 -0.000000000147898
15 0.0
16 1.77324741073256
17 -0.000000003439282
18 0.0
19 0.000000000763452
20 0.000000000125393
21 0.000000002963548
22 0.000000000159462
23 -0.25637682155575
24 0.0
25 0.000000003459390
26 -1.77329066834957
27 0.0
28 -0.000000000597989
29 -0.000000000073559
30 -0.000000003066432
31 -0.25639520928596
32 0.000000000147840
33 0.0
34 -1.77324741073212
35 0.000000003439489
36 0.0
37 -0.000000000175804
38 0.000000002061988
39 0.000000000173247
40 -0.000000001984867
41 -0.000000000175771
42 0.000000002062114
43 0.000000000173253
44 -0.000000001985089
 Sym=     24.1
 Ene=       0.7044
 Spin= Alpha
 Occup=    0.000000
1 -0.000000000886162
2 -0.000000002189957
3 -0.000000003209864
4 -0.000000000009852
5 -0.46952286647162
6 0.0
7 0.000000005409139
8 0.54602412702219
9 0.0
10 -0.000000001018261
11 -0.000000002080658
12 0.000000008416116
13 0.46957070705109
14 0.000000000333007
15 0.0
16 -0.54633212221582
17 0.000000003643639
18 0.0
19 -0.000000000886150
20 -0.000000002190024
21 -0.000000003209644
22 0.000000000009624
23 0.46952286647151
24 0.0
25 -0.000000005409310
26 -0.54602412702217
27 0.0
28 -0.000000001018274
29 -0.000000002080669
30 0.000000008416263
31 -0.46957070705101
32 -0.000000000333091
33 0.0
34 0.54633212221606
35 -0.000000003643432
36 0.0
37 -0.000000000879136
38 -0.000000002251095
39 -0.000000001344709
40 0.000000001400268
41 -0.000000000878991
42 -0.000000002251131
43 -0.000000001344763
44 0.000000001400102
 Sym=     25.1
 Ene=       0.7257
 Spin= Alpha
 Occup=    0.000000
1 -0.13703892187049
2 0.033634793492450
3 5.66642283724931
4 -0.13324520288114
5 -0.000000000224677
6 0.0
7 -4.37031537150691
8 -0.000000001929692
9 0.0
10 0.13742836293998
11 -0.033057433078539
12 -5.66706878768258
13 0.000000000785982
14 -0.13327962076770
15 0.0
16 -0.000000003072032
17 -4.37009880330697
18 0.0
19 -0.13703892187055
20 0.033634793491482
21 5.66642283725123
22 0.13324520288027
23 0.000000000224877
24 0.0
25 4.37031537150989
26 0.000000001929456
27 0.0
28 0.13742836293998
29 -0.033057433078581
30 -5.66706878768228
31 -0.000000000785803
32 0.13327962076726
33 0.0
34 0.000000003071908
35 4.37009880330822
36 0.0
37 -0.22722041481900
38 1.73629315486617
39 0.22762561895327
40 -1.73631861175882
41 -0.22722041481938
42 1.73629315486726
43 0.22762561895335
44 -1.73631861175962
 Sym=     26.1
 Ene=       0.7444
 Spin= Alpha
 Occup=    0.000000
1 0.001550666289970
2 -0.58370246469834
3 0.74466072411854
4 -0.071420935368336
5 0.000000001511247
6 0.0
7 0.30758509404045
8 -0.000000001645228
9 0.0
10 0.001656363995679
11 -0.58373997782190
12 0.73874689551171
13 -0.000000001536104
14 0.071358469556255
15 0.0
16 0.000000001813466
17 -0.31237800265175
18 0.0
19 0.001550666289979
20 -0.58370246469835
21 0.74466072411858
22 0.071420935368372
23 -0.000000001511063
24 0.0
25 -0.30758509404070
26 0.000000001645123
27 0.0
28 0.001656363995687
29 -0.58373997782180
30 0.73874689551159
31 0.000000001535987
32 -0.071358469556216
33 0.0
34 -0.000000001813348
35 0.31237800265185
36 0.0
37 -0.39561432720438
38 -0.076311982915150
39 -0.39540657133863
40 -0.078253240219250
41 -0.39561432720437
42 -0.076311982915281
43 -0.39540657133856
44 -0.078253240219316
 Sym=     27.1
 Ene=       0.7969
 Spin= Alpha
 Occup=    0.000000
1 0.0
2 0.0
3 0.0
4 0.0
5 0.0
6 0.53902115946795
7 0.0
8 0.0
9 -0.39171069283653
10 0.0
11 0.0
12 0.0
13 0.0
14 0.0
15 0.53924693507581
16 0.0
17 0.0
18 -0.39239488469174
19 0.0
20 0.0
21 0.0
22 0.0
23 0.0
24 0.53902115946802
25 0.0
26 0.0
27 -0.39171069283671
28 0.0
29 0.0
30 0.0
31 0.0
32 0.0
33 0.53924693507637
34 0.0
35 0.0
36 -0.39239488469243
37 0.0
38 0.0
39 0.0
40 0.0
41 0.0
42 0.0
43 0.0
44 0.0
 Sym=     28.1
 Ene=       0.8361
 Spin= Alpha
 Occup=    0.000000
1 0.059502806810169
2 0.24493605552059
3 -0.42007386574636
4 0.17816588864290
5 -0.000000681302645
6 0.0
7 -0.085621229867743
8 0.000000419314499
9 0.0
10 0.000000057008046
11 0.000000239643894
12 -0.000000409996623
13 0.69427980719305
14 -0.000000174676838
15 0.0
16 -0.42657771569068
17 0.000000084043750
18 0.0
19 -0.059502806810125
20 -0.24493605552077
21 0.42007386574504
22 0.17816588864278
23 -0.000000681302491
24 0.0
25 -0.085621229868813
26 0.000000419313758
27 0.0
28 -0.000000057008096
29 -0.000000239643826
30 0.000000409997884
31 0.69427980719315
32 -0.000000174676873
33 0.0
34 -0.42657771569132
35 0.000000084042533
36 0.0
37 0.42776762078816
38 -0.093216902085787
39 0.000000419830116
40 -0.000000092069031
41 -0.42776762078813
42 0.093216902085333
43 -0.000000419830292
44 0.000000092069724
 Sym=     29.1
 Ene=       0.8361
 Spin= Alpha
 Occup=    0.000000
1 0.000000060325730
2 0.000000241243472
3 -0.000000415203966
4 0.000000174940266
5 0.69423728872621
6 0.0
7 -0.000000083804249
8 -0.42637212010776
9 0.0
10 -0.059789551410790
11 -0.24505037351603
12 0.42049639738878
13 0.000000681087075
14 0.17815497203953
15 0.0
16 -0.000000417433909
17 -0.085670163404862
18 0.0
19 -0.000000060325712
20 -0.000000241243296
21 0.000000415202687
22 0.000000174940290
23 0.69423728872632
24 0.0
25 -0.000000083805175
26 -0.42637212010795
27 0.0
28 0.059789551410768
29 0.24505037351612
30 -0.42049639738766
31 0.000000681087033
32 0.17815497203957
33 0.0
34 -0.000000417433934
35 -0.085670163405753
36 0.0
37 0.000000419674402
38 -0.000000090813470
39 -0.42782163767398
40 0.093127811496973
41 -0.000000419674282
42 0.000000090813107
43 0.42782163767413
44 -0.093127811496733
 Sym=     30.1
 Ene=       0.8419
 Spin= Alpha
 Occup=    0.000000
1 0.0
2 0.0
3 0.0
4 0.0
5 0.0
6 -0.000000048677808
7 0.0
8 0.0
9 0.000000061079149
10 0.0
11 0.0
12 0.0
13 0.0
14 0.0
15 -0.75073733915515
16 0.0
17 0.0
18 0.94037763946493
19 0.0
20 0.0
21 0.0
22 0.0
23 0.0
24 0.000000048676768
25 0.0
26 0.0
27 -0.000000061077220
28 0.0
29 0.0
30 0.0
31 0.0
32 0.0
33 0.75073733915537
34 0.0
35 0.0
36 -0.94037763946629
37 0.0
38 0.0
39 0.0
40 0.0
41 0.0
42 0.0
43 0.0
44 0.0
 Sym=     31.1
 Ene=       0.8420
 Spin= Alpha
 Occup=    0.000000
1 0.0
2 0.0
3 0.0
4 0.0
5 0.0
6 -0.75075439521594
7 0.0
8 0.0
9 0.94036196491809
10 0.0
11 0.0
12 0.0
13 0.0
14 0.0
15 0.000000048772821
16 0.0
17 0.0
18 -0.000000060989869
19 0.0
20 0.0
21 0.0
22 0.0
23 0.0
24 0.75075439521613
25 0.0
26 0.0
27 -0.94036196491870
28 0.0
29 0.0
30 0.0
31 0.0
32 0.0
33 -0.000000048773144
34 0.0
35 0.0
36 0.000000060990612
37 0.0
38 0.0
39 0.0
40 0.0
41 0.0
42 0.0
43 0.0
44 0.0
 Sym=     32.1
 Ene=       0.8779
 Spin= Alpha
 Occup=    0.000000
1 0.0
2 0.0
3 0.0
4 0.0
5 0.0
6 -0.47779477550617
7 0.0
8 0.0
9 1.20010763210708
10 0.0
11 0.0
12 0.0
13 0.0
14 0.0
15 0.47749843378191
16 0.0
17 0.0
18 -1.19989497505236
19 0.0
20 0.0
21 0.0
22 0.0
23 0.0
24 -0.47779477550575
25 0.0
26 0.0
27 1.20010763210656
28 0.0
29 0.0
30 0.0
31 0.0
32 0.0
33 0.47749843378088
34 0.0
35 0.0
36 -1.19989497505109
37 0.0
38 0.0
39 0.0
40 0.0
41 0.0
42 0.0
43 0.0
44 0.0
 Sym=     33.1
 Ene=       1.0301
 Spin= Alpha
 Occup=    0.000000
1 0.016722959229345
2 0.56270972765175
3 0.25094805146361
4 -0.47964416612059
5 0.000000000033667
6 0.0
7 0.89041305952091
8 -0.000000000501557
9 0.0
10 0.016530534917937
11 0.56261777350385
12 0.25098157060834
13 0.000000000381331
14 0.47975708448894
15 0.0
16 -0.000000000782393
17 -0.89085122492111
18 0.0
19 0.016722959229349
20 0.56270972765198
21 0.25094805146303
22 0.47964416612073
23 -0.000000000033525
24 0.0
25 -0.89041305952232
26 0.000000000501398
27 0.0
28 0.016530534917959
29 0.56261777350360
30 0.25098157060883
31 -0.000000000381144
32 -0.47975708448937
33 0.0
34 0.000000000782181
35 0.89085122492228
36 0.0
37 -0.12684198693669
38 -0.49220149758877
39 -0.12690133947078
40 -0.49244944849405
41 -0.12684198693642
42 -0.49220149758948
43 -0.12690133947087
44 -0.49244944849491
 Sym=     34.1
 Ene=       1.0782
 Spin= Alpha
 Occup=    0.000000
1 -0.000000001468259
2 -0.000000000774169
3 0.000000003705464
4 -0.000000000925070
5 -0.66076193474812
6 0.0
7 0.000000001396652
8 1.89109247320081
9 0.0
10 0.000000001227922
11 0.000000001084299
12 -0.000000003407408
13 -0.66070760290779
14 -0.000000000562250
15 0.0
16 1.89104193157729
17 0.000000000753305
18 0.0
19 -0.000000001468184
20 -0.000000000773421
21 0.000000003703313
22 0.000000000926209