[Molden Format]
[Atoms] Angs
C     1    6         0.0000000000       -0.6769380253       -0.7827569236
C     2    6         0.0000000000       -0.6769380253        0.7827569236
C     3    6         0.0000000000        0.6769380253        0.7827569236
C     4    6         0.0000000000        0.6769380253       -0.7827569236
H     5    1         0.0000000000       -1.4379809006       -1.5441628360
H     6    1         0.0000000000       -1.4379809006        1.5441628360
H     7    1         0.0000000000        1.4379809006        1.5441628360
H     8    1         0.0000000000        1.4379809006       -1.5441628360
[GTO]
   1 0
 s    6  1.00
  0.3047524900D+04  0.1834737091D-02
  0.4573695200D+03  0.1403732293D-01
  0.1039486800D+03  0.6884262165D-01
  0.2921015500D+02  0.2321844388D+00
  0.9286663000D+01  0.4679413476D+00
  0.3163927000D+01  0.3623119882D+00
 s    3  1.00
  0.7868272300D+01 -0.1193324245D+00
  0.1881288500D+01 -0.1608541561D+00
  0.5442492600D+00  0.1143456443D+01
 s    1  1.00
  0.1687144800D+00  0.1000000000D+01
 p    3  1.00
  0.7868272300D+01  0.6899906693D-01
  0.1881288500D+01  0.3164239597D+00
  0.5442492600D+00  0.7443082892D+00
 p    1  1.00
  0.1687144800D+00  0.1000000000D+01
  
   2 0
 s    6  1.00
  0.3047524900D+04  0.1834737091D-02
  0.4573695200D+03  0.1403732293D-01
  0.1039486800D+03  0.6884262165D-01
  0.2921015500D+02  0.2321844388D+00
  0.9286663000D+01  0.4679413476D+00
  0.3163927000D+01  0.3623119882D+00
 s    3  1.00
  0.7868272300D+01 -0.1193324245D+00
  0.1881288500D+01 -0.1608541561D+00
  0.5442492600D+00  0.1143456443D+01
 s    1  1.00
  0.1687144800D+00  0.1000000000D+01
 p    3  1.00
  0.7868272300D+01  0.6899906693D-01
  0.1881288500D+01  0.3164239597D+00
  0.5442492600D+00  0.7443082892D+00
 p    1  1.00
  0.1687144800D+00  0.1000000000D+01
  
   3 0
 s    6  1.00
  0.3047524900D+04  0.1834737091D-02
  0.4573695200D+03  0.1403732293D-01
  0.1039486800D+03  0.6884262165D-01
  0.2921015500D+02  0.2321844388D+00
  0.9286663000D+01  0.4679413476D+00
  0.3163927000D+01  0.3623119882D+00
 s    3  1.00
  0.7868272300D+01 -0.1193324245D+00
  0.1881288500D+01 -0.1608541561D+00
  0.5442492600D+00  0.1143456443D+01
 s    1  1.00
  0.1687144800D+00  0.1000000000D+01
 p    3  1.00
  0.7868272300D+01  0.6899906693D-01
  0.1881288500D+01  0.3164239597D+00
  0.5442492600D+00  0.7443082892D+00
 p    1  1.00
  0.1687144800D+00  0.1000000000D+01
  
   4 0
 s    6  1.00
  0.3047524900D+04  0.1834737091D-02
  0.4573695200D+03  0.1403732293D-01
  0.1039486800D+03  0.6884262165D-01
  0.2921015500D+02  0.2321844388D+00
  0.9286663000D+01  0.4679413476D+00
  0.3163927000D+01  0.3623119882D+00
 s    3  1.00
  0.7868272300D+01 -0.1193324245D+00
  0.1881288500D+01 -0.1608541561D+00
  0.5442492600D+00  0.1143456443D+01
 s    1  1.00
  0.1687144800D+00  0.1000000000D+01
 p    3  1.00
  0.7868272300D+01  0.6899906693D-01
  0.1881288500D+01  0.3164239597D+00
  0.5442492600D+00  0.7443082892D+00
 p    1  1.00
  0.1687144800D+00  0.1000000000D+01
  
   5 0
 s    3  1.00
  0.1873113700D+02  0.3349460400D-01
  0.2825394400D+01  0.2347269500D+00
  0.6401216900D+00  0.8137573301D+00
 s    1  1.00
  0.1612777600D+00  0.1000000000D+01
  
   6 0
 s    3  1.00
  0.1873113700D+02  0.3349460400D-01
  0.2825394400D+01  0.2347269500D+00
  0.6401216900D+00  0.8137573301D+00
 s    1  1.00
  0.1612777600D+00  0.1000000000D+01
  
   7 0
 s    3  1.00
  0.1873113700D+02  0.3349460400D-01
  0.2825394400D+01  0.2347269500D+00
  0.6401216900D+00  0.8137573301D+00
 s    1  1.00
  0.1612777600D+00  0.1000000000D+01
  
   8 0
 s    3  1.00
  0.1873113700D+02  0.3349460400D-01
  0.2825394400D+01  0.2347269500D+00
  0.6401216900D+00  0.8137573301D+00
 s    1  1.00
  0.1612777600D+00  0.1000000000D+01


[MO]
 Sym=      1.1
 Ene=     -11.2486
 Spin= Alpha
 Occup=    2.000000
1 0.49795001489047
2 0.011544295765389
3 -0.003072319081393
4 -0.000000000000000
5 0.000084771560371
6 0.000140555896634
7 0.000000000000000
8 -0.000070961196300
9 -0.000035125304030
10 0.49795001491058
11 0.011544295765851
12 -0.003072319081327
13 0.000000000000000
14 0.000084771560377
15 -0.000140555896641
16 -0.000000000000000
17 -0.000070961196139
18 0.000035125303953
19 0.49795001491058
20 0.011544295765877
21 -0.003072319081655
22 -0.000000000000000
23 -0.000084771560378
24 -0.000140555896643
25 -0.000000000000000
26 0.000070961196307
27 0.000035125304098
28 0.49795001489176
29 0.011544295765391
30 -0.003072319081088
31 -0.000000000000000
32 -0.000084771560372
33 0.000140555896632
34 0.000000000000001
35 0.000070961196134
36 -0.000035125303876
37 -0.000338052248889
38 0.000907216433381
39 -0.000338052248889
40 0.000907216433474
41 -0.000338052248897
42 0.000907216433412
43 -0.000338052248881
44 0.000907216433452
 Sym=      2.1
 Ene=     -11.2481
 Spin= Alpha
 Occup=    2.000000
1 0.49801122063192
2 0.012183862647432
3 -0.006484145244725
4 -0.000000000000001
5 0.000156547248040
6 0.000255990057393
7 0.000000000000001
8 -0.000192036659922
9 -0.001932088509909
10 -0.49801122061261
11 -0.012183862646982
12 0.006484145244603
13 0.000000000000001
14 -0.000156547248037
15 0.000255990057386
16 -0.000000000000000
17 0.000192036659912
18 -0.001932088509901
19 -0.49801122061621
20 -0.012183862647087
21 0.006484145244854
22 0.000000000000000
23 0.000156547248042
24 0.000255990057390
25 -0.000000000000000
26 -0.000192036660018
27 -0.001932088509991
28 0.49801122063583
29 0.012183862647542
30 -0.006484145244972
31 -0.000000000000000
32 -0.000156547248045
33 0.000255990057395
34 0.000000000000000
35 0.000192036660015
36 -0.001932088509988
37 -0.000202306791471
38 0.000644242549045
39 0.000202306791457
40 -0.000644242549015
41 0.000202306791461
42 -0.000644242548985
43 -0.000202306791474
44 0.000644242549025
 Sym=      3.1
 Ene=     -11.2471
 Spin= Alpha
 Occup=    2.000000
1 0.49821634733458
2 0.012541390912048
3 -0.009279783680359
4 0.000000000000001
5 0.000290143115378
6 0.000275291410534
7 0.000000000000000
8 -0.003335370775195
9 -0.000505226754631
10 0.49821634735863
11 0.012541390912690
12 -0.009279783681327
13 -0.000000000000001
14 0.000290143115398
15 -0.000275291410551
16 0.000000000000000
17 -0.003335370775492
18 0.000505226754883
19 -0.49821634735814
20 -0.012541390912680
21 0.009279783681329
22 -0.000000000000000
23 0.000290143115398
24 0.000275291410551
25 0.000000000000001
26 -0.003335370775493
27 -0.000505226754886
28 -0.49821634733378
29 -0.012541390912029
30 0.009279783680351
31 0.000000000000000
32 0.000290143115378
33 -0.000275291410533
34 -0.000000000000001
35 -0.003335370775194
36 0.000505226754627
37 -0.000220901679794
38 0.000354106332818
39 -0.000220901679798
40 0.000354106332789
41 0.000220901679798
42 -0.000354106332788
43 0.000220901679792
44 -0.000354106332817
 Sym=      4.1
 Ene=     -11.2466
 Spin= Alpha
 Occup=    2.000000
1 0.49833296475649
2 0.013587439224849
3 -0.023156478258901
4 0.000000000000000
5 0.000397427936626
6 0.000378983045834
7 -0.000000000000001
8 -0.007746918706460
9 -0.006699988520916
10 -0.49833296473163
11 -0.013587439224222
12 0.023156478258442
13 0.000000000000000
14 -0.000397427936612
15 0.000378983045820
16 0.000000000000000
17 0.007746918706296
18 -0.006699988520891
19 0.49833296472853
20 0.013587439224146
21 -0.023156478258400
22 0.000000000000000
23 -0.000397427936612
24 -0.000378983045819
25 -0.000000000000000
26 0.007746918706295
27 0.006699988520879
28 -0.49833296475208
29 -0.013587439224739
30 0.023156478258848
31 -0.000000000000000
32 0.000397427936626
33 -0.000378983045832
34 0.000000000000001
35 -0.007746918706459
36 0.006699988520905
37 -0.000203817997282
38 -0.001218746964295
39 0.000203817997269
40 0.001218746964314
41 -0.000203817997268
42 -0.001218746964319
43 0.000203817997279
44 0.001218746964304
 Sym=      5.1
 Ene=      -1.1633
 Spin= Alpha
 Occup=    2.000000
1 -0.11015129748551
2 0.21727218406013
3 0.12458459700302
4 -0.000000000000000
5 0.093115930787313
6 0.066991067909004
7 0.000000000000002
8 0.010606305636061
9 0.012099405562320
10 -0.11015129748551
11 0.21727218406011
12 0.12458459700329
13 0.000000000000001
14 0.093115930787311
15 -0.066991067909000
16 -0.000000000000002
17 0.010606305636213
18 -0.012099405562470
19 -0.11015129748551
20 0.21727218406012
21 0.12458459700302
22 -0.000000000000001
23 -0.093115930787312
24 -0.066991067909003
25 0.000000000000002
26 -0.010606305636078
27 -0.012099405562328
28 -0.11015129748551
29 0.21727218406011
30 0.12458459700330
31 0.000000000000000
32 -0.093115930787313
33 0.066991067908997
34 -0.000000000000002
35 -0.010606305636232
36 0.012099405562493
37 0.037421795780009
38 0.004944085059022
39 0.037421795780010
40 0.004944085059100
41 0.037421795780007
42 0.004944085059036
43 0.037421795780013
44 0.004944085059121
 Sym=      6.1
 Ene=      -0.9124
 Spin= Alpha
 Occup=    2.000000
1 -0.10693925069247
2 0.21628929715864
3 0.19519274260557
4 -0.000000000000000
5 0.094480403342338
6 -0.084549343257809
7 -0.000000000000001
8 0.000023140824463
9 -0.018881679451809
10 0.10693925069247
11 -0.21628929715865
12 -0.19519274260552
13 -0.000000000000000
14 -0.094480403342339
15 -0.084549343257800
16 0.000000000000000
17 -0.000023140824418
18 -0.018881679451831
19 0.10693925069247
20 -0.21628929715868
21 -0.19519274260509
22 0.000000000000000
23 0.094480403342343
24 -0.084549343257802
25 -0.000000000000000
26 0.000023140824215
27 -0.018881679452033
28 -0.10693925069246
29 0.21628929715869
30 0.19519274260504
31 0.000000000000000
32 -0.094480403342340
33 -0.084549343257798
34 0.000000000000001
35 -0.000023140824163
36 -0.018881679452065
37 0.083497947259461
38 0.019671826856300
39 -0.083497947259457
40 -0.019671826856283
41 -0.083497947259447
42 -0.019671826856198
43 0.083497947259448
44 0.019671826856168
 Sym=      7.1
 Ene=      -0.8241
 Spin= Alpha
 Occup=    2.000000
1 -0.094906594117591
2 0.19412239095812
3 0.19765757022189
4 -0.000000000000000
5 -0.11442939751897
6 0.037998916842112
7 -0.000000000000000
8 -0.029935292042496
9 0.008866762818694
10 -0.094906594117585
11 0.19412239095811
12 0.19765757022169
13 0.000000000000000
14 -0.11442939751897
15 -0.037998916842120
16 0.000000000000001
17 -0.029935292042579
18 -0.008866762818555
19 0.094906594117586
20 -0.19412239095811
21 -0.19765757022171
22 0.000000000000000
23 -0.11442939751896
24 0.037998916842125
25 -0.000000000000001
26 -0.029935292042593
27 0.008866762818537
28 0.094906594117591
29 -0.19412239095812
30 -0.19765757022187
31 -0.000000000000000
32 -0.11442939751897
33 -0.037998916842112
34 0.000000000000001
35 -0.029935292042482
36 -0.008866762818705
37 0.11137482255114
38 0.047033678176294
39 0.11137482255113
40 0.047033678176232
41 -0.11137482255113
42 -0.047033678176202
43 -0.11137482255114
44 -0.047033678176314
 Sym=      8.1
 Ene=      -0.6974
 Spin= Alpha
 Occup=    2.000000
1 -0.072839418302921
2 0.15483874536174
3 0.016315336364648
4 -0.000000000000001
5 -0.11702347880760
6 -0.10232503416353
7 0.000000000000000
8 -0.12748020797047
9 -0.11832669658949
10 0.072839418303011
11 -0.15483874536192
12 -0.016315336364978
13 0.000000000000000
14 0.11702347880827
15 -0.10232503416421
16 -0.000000000000000
17 0.12748020797068
18 -0.11832669658971
19 -0.072839418302927
20 0.15483874536175
21 0.016315336364694
22 0.000000000000000
23 0.11702347880761
24 0.10232503416352
25 0.000000000000001
26 0.12748020797046
27 0.11832669658948
28 0.072839418303008
29 -0.15483874536191
30 -0.016315336364962
31 0.000000000000000
32 -0.11702347880826
33 0.10232503416421
34 -0.000000000000000
35 -0.12748020797071
36 0.11832669658974
37 0.16098127407327
38 0.052276788023506
39 -0.16098127407385
40 -0.052276788023846
41 0.16098127407327
42 0.052276788023500
43 -0.16098127407385
44 -0.052276788023813
 Sym=      9.1
 Ene=      -0.6966
 Spin= Alpha
 Occup=    2.000000
1 0.021712562844111
2 -0.044038330920516
3 -0.074648585264110
4 0.000000000000000
5 0.16644603142343
6 0.17358389720803
7 0.000000000000000
8 0.058227604982386
9 0.061187796043422
10 0.021712562843830
11 -0.044038330919871
12 -0.074648585264621
13 0.000000000000000
14 0.16644603142296
15 -0.17358389720763
16 0.000000000000000
17 0.058227604981593
18 -0.061187796042697
19 0.021712562844111
20 -0.044038330920533
21 -0.074648585264060
22 0.000000000000000
23 -0.16644603142342
24 -0.17358389720803
25 0.000000000000000
26 -0.058227604982436
27 -0.061187796043479
28 0.021712562843831
29 -0.044038330919861
30 -0.074648585264635
31 -0.000000000000000
32 -0.16644603142296
33 0.17358389720763
34 -0.000000000000000
35 -0.058227604981622
36 0.061187796042693
37 -0.14623539235666
38 -0.083959270336100
39 -0.14623539235604
40 -0.083959270336009
41 -0.14623539235666
42 -0.083959270336062
43 -0.14623539235604
44 -0.083959270335986
 Sym=     10.1
 Ene=      -0.5514
 Spin= Alpha
 Occup=    2.000000
1 -0.017689613199122
2 0.035769747947312
3 0.046494916367559
4 -0.000000000000000
5 0.28481078969014
6 0.068054184162027
7 -0.000000000000000
8 0.11764160866315
9 0.047199458888565
10 0.017689613199123
11 -0.035769747947313
12 -0.046494916367568
13 -0.000000000000000
14 -0.28481078969012
15 0.068054184162038
16 0.000000000000000
17 -0.11764160866321
18 0.047199458888626
19 0.017689613199129
20 -0.035769747947267
21 -0.046494916368253
22 -0.000000000000000
23 0.28481078969012
24 0.068054184162036
25 0.000000000000000
26 0.11764160866355
27 0.047199458888933
28 -0.017689613199131
29 0.035769747947271
30 0.046494916368269
31 -0.000000000000000
32 -0.28481078969013
33 0.068054184162020
34 -0.000000000000000
35 -0.11764160866362
36 0.047199458888972
37 -0.14572347050921
38 -0.11019507584269
39 0.14572347050922
40 0.11019507584263
41 0.14572347050920
42 0.11019507584249
43 -0.14572347050920
44 -0.11019507584244
 Sym=     11.1
 Ene=      -0.5324
 Spin= Alpha
 Occup=    2.000000
1 -0.000926648638308
2 0.010841151501466
3 -0.021882912933780
4 -0.000000000000000
5 0.23486387877167
6 -0.21754305237558
7 0.000000000000000
8 0.093640664106384
9 -0.10340796632104
10 -0.000926648638311
11 0.010841151501472
12 -0.021882912933668
13 0.000000000000000
14 0.23486387877169
15 0.21754305237557
16 -0.000000000000000
17 0.093640664106480
18 0.10340796632107
19 -0.000926648638309
20 0.010841151501471
21 -0.021882912933769
22 -0.000000000000000
23 -0.23486387877170
24 0.21754305237558
25 -0.000000000000000
26 -0.093640664106408
27 0.10340796632108
28 -0.000926648638311
29 0.010841151501443
30 -0.021882912933582
31 -0.000000000000000
32 -0.23486387877167
33 -0.21754305237558
34 -0.000000000000000
35 -0.093640664106513
36 -0.10340796632103
37 -0.008557024371716
38 -0.012727625356931
39 -0.008557024371725
40 -0.012727625356938
41 -0.008557024371731
42 -0.012727625356949
43 -0.008557024371714
44 -0.012727625356915
 Sym=     13.1
 Ene=      -0.4572
 Spin= Alpha
 Occup=    2.000000
1 -0.027166735321254
2 0.053650863088704
3 0.14151832996352
4 0.000000000000003
5 0.028952787040928
6 0.28205228452680
7 0.000000000000002
8 0.054731724466669
9 0.18526621250053
10 -0.027166735321267
11 0.053650863088620
12 0.14151832996468
13 0.000000000000002
14 0.028952787040924
15 -0.28205228452679
16 0.000000000000002
17 0.054731724467367
18 -0.18526621250105
19 0.027166735321269
20 -0.053650863088606
21 -0.14151832996476
22 0.000000000000003
23 0.028952787040930
24 0.28205228452679
25 0.000000000000002
26 0.054731724467314
27 0.18526621250104
28 0.027166735321252
29 -0.053650863088731
30 -0.14151832996341
31 0.000000000000002
32 0.028952787040919
33 -0.28205228452680
34 0.000000000000001
35 0.054731724466729
36 -0.18526621250054
37 -0.13516437972474
38 -0.10304159244671
39 -0.13516437972472
40 -0.10304159244642
41 0.13516437972472
42 0.10304159244648
43 0.13516437972474
44 0.10304159244662
 Sym=     12.1
 Ene=      -0.3689
 Spin= Alpha
 Occup=    2.000000
1 0.000000000000000
2 0.000000000000000
3 -0.000000000000010
4 0.39028469568227
5 0.000000000000000
6 -0.000000000000002
7 0.32822172430961
8 -0.000000000000005
9 -0.000000000000004
10 -0.000000000000000
11 -0.000000000000001
12 0.000000000000010
13 -0.021144353618053
14 -0.000000000000000
15 0.000000000000002
16 -0.079837690805239
17 0.000000000000010
18 -0.000000000000006
19 0.000000000000000
20 0.000000000000001
21 -0.000000000000012
22 -0.021144353618053
23 -0.000000000000000
24 -0.000000000000002
25 -0.079837690805249
26 0.000000000000008
27 0.000000000000007
28 -0.000000000000001
29 -0.000000000000001
30 0.000000000000018
31 0.39028469568227
32 -0.000000000000000
33 0.000000000000002
34 0.32822172430961
35 -0.000000000000001
36 0.000000000000001
37 0.000000000000002
38 -0.000000000000001
39 0.000000000000001
40 0.000000000000006
41 -0.000000000000001
42 -0.000000000000006
43 -0.000000000000001
44 -0.000000000000008
 Sym=     14.1
 Ene=      -0.3689
 Spin= Alpha
 Occup=    2.000000
1 -0.000000000000000
2 0.000000000000001
3 0.000000000000003
4 0.021144353618052
5 -0.000000000000000
6 0.000000000000002
7 0.079837690805234
8 0.000000000000003
9 0.000000000000005
10 -0.000000000000000
11 0.000000000000002
12 -0.000000000000010
13 -0.39028469568227
14 0.000000000000000
15 -0.000000000000003
16 -0.32822172430960
17 -0.000000000000011
18 0.000000000000004
19 0.000000000000000
20 -0.000000000000002
21 0.000000000000011
22 -0.39028469568227
23 -0.000000000000000
24 0.000000000000002
25 -0.32822172430962
26 -0.000000000000007
27 0.000000000000002
28 0.000000000000000
29 -0.000000000000002
30 0.000000000000000
31 0.021144353618047
32 0.000000000000000
33 -0.000000000000002
34 0.079837690805250
35 0.000000000000001
36 0.000000000000000
37 -0.000000000000001
38 0.000000000000002
39 -0.000000000000001
40 -0.000000000000008
41 0.000000000000001
42 0.000000000000000
43 0.000000000000001
44 0.000000000000001
 Sym=     16.1
 Ene=       0.1805
 Spin= Alpha
 Occup=    0.000000
1 0.000000000000001
2 -0.000000000000001
3 -0.000000000000015
4 0.016940361984380
5 0.000000000000002
6 0.000000000000002
7 0.19348607846070
8 0.000000000000009
9 0.000000000000007
10 0.000000000000000
11 -0.000000000000000
12 -0.000000000000014
13 -0.37351513215076
14 0.000000000000002
15 -0.000000000000002
16 -0.76452776248543
17 0.000000000000004
18 -0.000000000000003
19 0.000000000000001
20 -0.000000000000001
21 -0.000000000000017
22 0.37351513215075
23 -0.000000000000002
24 -0.000000000000002
25 0.76452776248542
26 -0.000000000000008
27 -0.000000000000008
28 0.000000000000001
29 -0.000000000000001
30 -0.000000000000018
31 -0.016940361984392
32 -0.000000000000002
33 0.000000000000002
34 -0.19348607846069
35 -0.000000000000005
36 0.000000000000005
37 0.000000000000001
38 0.000000000000023
39 0.000000000000001
40 0.000000000000016
41 0.000000000000001
42 0.000000000000024
43 0.000000000000001
44 0.000000000000020
 Sym=     15.1
 Ene=       0.1805
 Spin= Alpha
 Occup=    0.000000
1 0.000000000000001
2 -0.000000000000001
3 -0.000000000000016
4 0.37351513215074
5 0.000000000000002
6 0.000000000000002
7 0.76452776248544
8 0.000000000000008
9 0.000000000000007
10 0.000000000000000
11 -0.000000000000001
12 -0.000000000000015
13 -0.016940361984399
14 0.000000000000002
15 -0.000000000000002
16 -0.19348607846071
17 0.000000000000005
18 -0.000000000000004
19 0.000000000000002
20 -0.000000000000001
21 -0.000000000000017
22 0.016940361984396
23 -0.000000000000002
24 -0.000000000000002
25 0.19348607846071
26 -0.000000000000008
27 -0.000000000000007
28 0.000000000000001
29 -0.000000000000001
30 -0.000000000000017
31 -0.37351513215075
32 -0.000000000000002
33 0.000000000000002
34 -0.76452776248543
35 -0.000000000000006
36 0.000000000000006
37 0.000000000000001
38 0.000000000000023
39 0.000000000000001
40 0.000000000000017
41 0.000000000000001
42 0.000000000000024
43 0.000000000000001
44 0.000000000000021
 Sym=     17.1
 Ene=       0.2732
 Spin= Alpha
 Occup=    0.000000
1 0.038439635677040
2 -0.029509791610928
3 -0.83330353685792
4 -0.000000000000007
5 0.10788183243012
6 0.11062373105282
7 -0.000000000000018
8 0.34273226285276
9 0.30677123452865
10 0.038439635678452
11 -0.029509791612152
12 -0.83330353688640
13 0.000000000000007
14 0.10788183243218
15 -0.11062373105067
16 0.000000000000018
17 0.34273226285796
18 -0.30677123451831
19 0.038439635678594
20 -0.029509791612689
21 -0.83330353688274
22 -0.000000000000008
23 -0.10788183243237
24 -0.11062373105084
25 -0.000000000000019
26 -0.34273226286372
27 -0.30677123452423
28 0.038439635677070
29 -0.029509791610453
30 -0.83330353686508
31 0.000000000000008
32 -0.10788183243005
33 0.11062373105301
34 0.000000000000019
35 -0.34273226284890
36 0.30677123452586
37 0.047624092169284
38 1.08324342980296
39 0.047624092169055
40 1.08324342981318
41 0.047624092169128
42 1.08324342981995
43 0.047624092169174
44 1.08324342980144
 Sym=     18.1
 Ene=       0.2766
 Spin= Alpha
 Occup=    0.000000
1 -0.075172847973284
2 0.094512277454412
3 1.14905329761572
4 -0.000000000000001
5 -0.10873440534315
6 0.11757504759431
7 -0.000000000000000
8 -0.46905160372961
9 0.36357988011911
10 0.075172847972540
11 -0.094512277453716
12 -1.14905329759997
13 -0.000000000000000
14 0.10873440534095
15 0.11757504759655
16 -0.000000000000000
17 0.46905160372210
18 0.36357988012538
19 0.075172847973165
20 -0.094512277455599
21 -1.14905329759104
22 -0.000000000000000
23 -0.10873440534177
24 0.11757504759647
25 0.000000000000001
26 -0.46905160373808
27 0.36357988011218
28 -0.075172847973950
29 0.094512277456347
30 1.14905329760787
31 -0.000000000000001
32 0.10873440534392
33 0.11757504759427
34 -0.000000000000001
35 0.46905160374399
36 0.36357988010644
37 0.006540845899937
38 -0.64988919619834
39 -0.006540845900889
40 0.64988919617650
41 -0.006540845900471
42 0.64988919619476
43 0.006540845899520
44 -0.64988919621559
 Sym=     19.1
 Ene=       0.2866
 Spin= Alpha
 Occup=    0.000000
1 0.060007054448441
2 -0.16804940897929
3 0.55518415623990
4 -0.000000000000001
5 0.073836488541493
6 0.007377165074720
7 -0.000000000000002
8 1.21671565003257
9 1.04065389350491
10 -0.060007054448646
11 0.16804940897951
12 -0.55518415623592
13 0.000000000000001
14 -0.073836488541834
15 0.007377165075263
16 0.000000000000002
17 -1.21671565003520
18 1.04065389350814
19 0.060007054447710
20 -0.16804940897815
21 0.55518415625003
22 -0.000000000000000
23 -0.073836488540321
24 -0.007377165076437
25 -0.000000000000002
26 -1.21671565002961
27 -1.04065389351196
28 -0.060007054447660
29 0.16804940897805
30 -0.55518415625076
31 -0.000000000000000
32 0.073836488540419
33 -0.007377165076386
34 0.000000000000002
35 1.21671565002833
36 -1.04065389350988
37 0.036052799685002
38 1.50698550424180
39 -0.036052799685049
40 -1.50698550424840
41 0.036052799685030
42 1.50698550423950
43 -0.036052799685219
44 -1.50698550423712
 Sym=     20.1
 Ene=       0.3178
 Spin= Alpha
 Occup=    0.000000
1 0.061056070691008
2 -0.070078234694495
3 -1.23287542476151
4 0.000000000000000
5 0.027819117413045
6 0.12088077795043
7 0.000000000000000
8 0.036725003232289
9 0.66531745589696
10 0.061056070690810
11 -0.070078234693830
12 -1.23287542476431
13 -0.000000000000000
14 0.027819117412913
15 -0.12088077795068
16 -0.000000000000001
17 0.036725003228965
18 -0.66531745589579
19 -0.061056070690768
20 0.070078234693608
21 1.23287542476309
22 0.000000000000001
23 0.027819117412541
24 0.12088077795016
25 0.000000000000001
26 0.036725003227591
27 0.66531745589347
28 -0.061056070690907
29 0.070078234694447
30 1.23287542476003
31 -0.000000000000001
32 0.027819117412962
33 -0.12088077795051
34 -0.000000000000002
35 0.036725003232565
36 -0.66531745589827
37 -0.023717737914613
38 1.14324277811345
39 -0.023717737914748
40 1.14324277811113
41 0.023717737914839
42 -1.14324277810726
43 0.023717737914695
44 -1.14324277811362
 Sym=     21.1
 Ene=       0.3437
 Spin= Alpha
 Occup=    0.000000
1 -0.017232896632659
2 0.009891825599754
3 -0.002112082069919
4 0.000000000000000
5 0.10470264749107
6 0.19987711704268
7 -0.000000000000001
8 0.42490799191776
9 1.01334338340604
10 0.017232896632732
11 -0.009891825600105
12 0.002112082069532
13 0.000000000000001
14 -0.10470264749075
15 0.19987711704225
16 0.000000000000001
17 -0.42490799191495
18 1.01334338340422
19 0.017232896632618
20 -0.009891825600415
21 0.002112082076776
22 0.000000000000001
23 0.10470264749090
24 0.19987711704250
25 -0.000000000000000
26 0.42490799191340
27 1.01334338340183
28 -0.017232896632602
29 0.009891825600538
30 -0.002112082077839
31 0.000000000000000
32 -0.10470264749087
33 0.19987711704240
34 0.000000000000001
35 -0.42490799191118
36 1.01334338340050
37 0.000593958289707
38 1.16973991028806
39 -0.000593958289675
40 -1.16973991028398
41 -0.000593958289614
42 -1.16973991028491
43 0.000593958289728
44 1.16973991028288
 Sym=     22.1
 Ene=       0.4223
 Spin= Alpha
 Occup=    0.000000
1 -0.051538661614485
2 0.038169113779830
3 1.47536895375076
4 -0.000000000000000
5 0.12678086634481
6 0.091431894846670
7 -0.000000000000000
8 1.70420555412725
9 0.27795494036645
10 -0.051538661614878
11 0.038169113778813
12 1.47536895377294
13 -0.000000000000001
14 0.12678086634496
15 -0.091431894847013
16 -0.000000000000000
17 1.70420555413928
18 -0.27795494037716
19 0.051538661614912
20 -0.038169113779048
21 -1.47536895377337
22 -0.000000000000000
23 0.12678086634461
24 0.091431894846635
25 -0.000000000000001
26 1.70420555413889
27 0.27795494037636
28 0.051538661614490
29 -0.038169113779899
30 -1.47536895375057
31 -0.000000000000001
32 0.12678086634499
33 -0.091431894846852
34 -0.000000000000000
35 1.70420555412751
36 -0.27795494036719
37 0.014994028452311
38 0.87279829632811
39 0.014994028452199
40 0.87279829633386
41 -0.014994028452203
42 -0.87279829633217
43 -0.014994028452291
44 -0.87279829632916
 Sym=     23.1
 Ene=       0.4877
 Spin= Alpha
 Occup=    0.000000
1 -0.016066989213409
2 0.008298586025542
3 0.17756065998898
4 -0.000000000000001
5 -0.14020363229772
6 0.22588125670193
7 0.000000000000001
8 -0.74485080471375
9 1.56722963663564
10 0.016066989213396
11 -0.008298586025626
12 -0.17756065998841
13 -0.000000000000000
14 0.14020363229774
15 0.22588125670191
16 -0.000000000000001
17 0.74485080471447
18 1.56722963663541
19 -0.016066989213404
20 0.008298586025683
21 0.17756065998838
22 -0.000000000000001
23 0.14020363229773
24 -0.22588125670197
25 0.000000000000000
26 0.74485080471450
27 -1.56722963663545
28 0.016066989213404
29 -0.008298586025606
30 -0.17756065998882
31 -0.000000000000000
32 -0.14020363229763
33 -0.22588125670204
34 0.000000000000000
35 -0.74485080471377
36 -1.56722963663572
37 -0.047177867502431
38 0.40038515141781
39 0.047177867502393
40 -0.40038515141733
41 -0.047177867502446
42 0.40038515141744
43 0.047177867502393
44 -0.40038515141803
 Sym=     24.1
 Ene=       0.6854
 Spin= Alpha
 Occup=    0.000000
1 -0.007958322005259
2 -0.11125413320581
3 -0.040364390998527
4 0.000000000000000
5 -0.37802126411503
6 0.24800274423691
7 -0.000000000000000
8 0.52699369815095
9 -0.23593268871778
10 -0.007958322004994
11 -0.11125413320562
12 -0.040364391011394
13 0.000000000000000
14 -0.37802126411514
15 -0.24800274423672
16 -0.000000000000000
17 0.52699369814303
18 0.23593268872312
19 -0.007958322005262
20 -0.11125413320579
21 -0.040364390998478
22 0.000000000000001
23 0.37802126411502
24 -0.24800274423689
25 -0.000000000000001
26 -0.52699369815104
27 0.23593268871776
28 -0.007958322004999
29 -0.11125413320571
30 -0.040364391011143
31 -0.000000000000000
32 0.37802126411513
33 0.24800274423673
34 0.000000000000000
35 -0.52699369814304
36 -0.23593268872318
37 0.037080961695334
38 0.062054549325319
39 0.037080961695711
40 0.062054549321787
41 0.037080961695355
42 0.062054549325338
43 0.037080961695674
44 0.062054549321719
 Sym=     25.1
 Ene=       0.7185
 Spin= Alpha
 Occup=    0.000000
1 -0.13086135248905
2 0.034251326389931
3 5.65451585012303
4 -0.000000000000001
5 0.066421908542388
6 0.11572265559784
7 0.000000000000001
8 3.63820717593722
9 2.34580361908941
10 0.13086135248903
11 -0.034251326389239
12 -5.65451585012335
13 -0.000000000000001
14 -0.066421908541174
15 0.11572265559738
16 0.000000000000001
17 -3.63820717593893
18 2.34580361909101
19 -0.13086135248906
20 0.034251326389042
21 5.65451585012285
22 -0.000000000000001
23 -0.066421908541538
24 -0.11572265559790
25 0.000000000000002
26 -3.63820717593770
27 -2.34580361908940
28 0.13086135248908
29 -0.034251326391744
30 -5.65451585011960
31 -0.000000000000001
32 0.066421908541461
33 -0.11572265559974
34 0.000000000000001
35 3.63820717593842
36 -2.34580361908719
37 -0.20973052521730
38 1.66735194396376
39 0.20973052521681
40 -1.66735194396424
41 -0.20973052521784
42 1.66735194396383
43 0.20973052521663
44 -1.66735194396385
 Sym=     26.1
 Ene=       0.7426
 Spin= Alpha
 Occup=    0.000000
1 0.001923497442807
2 -0.58350010664877
3 0.74704569866268
4 0.000000000000001
5 0.052728063792919
6 0.050935564810987
7 -0.000000000000001
8 -0.21363680783399
9 -0.23135944284313
10 0.001923497442603
11 -0.58350010664868
12 0.74704569867170
13 0.000000000000000
14 0.052728063793260
15 -0.050935564811100
16 0.000000000000000
17 -0.21363680782839
18 0.23135944283941
19 0.001923497442831
20 -0.58350010664900
21 0.74704569866325
22 0.000000000000001
23 -0.052728063793226
24 -0.050935564810939
25 -0.000000000000001
26 0.21363680783423
27 0.23135944284317
28 0.001923497442578
29 -0.58350010664860
30 0.74704569867167
31 0.000000000000001
32 -0.052728063793138
33 0.050935564811365
34 -0.000000000000001
35 0.21363680782806
36 -0.23135944283976
37 -0.39447706529224
38 -0.083624624292283
39 -0.39447706529257
40 -0.083624624289573
41 -0.39447706529212
42 -0.083624624292414
43 -0.39447706529267
44 -0.083624624289509
 Sym=     27.1
 Ene=       0.7716
 Spin= Alpha
 Occup=    0.000000
1 0.032543481796104
2 0.16714656455390
3 -0.047063478574236
4 0.000000000000000
5 0.25754644760218
6 -0.41144051373849
7 -0.000000000000001
8 -0.26828825266785
9 0.40770454769556
10 -0.032543481796106
11 -0.16714656455417
12 0.047063478574592
13 0.000000000000000
14 -0.25754644760216
15 -0.41144051373850
16 0.000000000000000
17 0.26828825266777
18 0.40770454769564
19 -0.032543481795903
20 -0.16714656455444
21 0.047063478567685
22 0.000000000000001