[Molden Format]
[Atoms] Angs
C     1    6         0.0000000000       -0.6769380253       -0.7827569236
C     2    6         0.0000000000       -0.6769380253        0.7827569236
C     3    6         0.0000000000        0.6769380253        0.7827569236
C     4    6         0.0000000000        0.6769380253       -0.7827569236
H     5    1         0.0000000000       -1.4379809006       -1.5441628360
H     6    1         0.0000000000       -1.4379809006        1.5441628360
H     7    1         0.0000000000        1.4379809006        1.5441628360
H     8    1         0.0000000000        1.4379809006       -1.5441628360
[GTO]
   1 0
 s    6  1.00
  0.3047524900D+04  0.1834737091D-02
  0.4573695200D+03  0.1403732293D-01
  0.1039486800D+03  0.6884262165D-01
  0.2921015500D+02  0.2321844388D+00
  0.9286663000D+01  0.4679413476D+00
  0.3163927000D+01  0.3623119882D+00
 s    3  1.00
  0.7868272300D+01 -0.1193324245D+00
  0.1881288500D+01 -0.1608541561D+00
  0.5442492600D+00  0.1143456443D+01
 s    1  1.00
  0.1687144800D+00  0.1000000000D+01
 p    3  1.00
  0.7868272300D+01  0.6899906693D-01
  0.1881288500D+01  0.3164239597D+00
  0.5442492600D+00  0.7443082892D+00
 p    1  1.00
  0.1687144800D+00  0.1000000000D+01
  
   2 0
 s    6  1.00
  0.3047524900D+04  0.1834737091D-02
  0.4573695200D+03  0.1403732293D-01
  0.1039486800D+03  0.6884262165D-01
  0.2921015500D+02  0.2321844388D+00
  0.9286663000D+01  0.4679413476D+00
  0.3163927000D+01  0.3623119882D+00
 s    3  1.00
  0.7868272300D+01 -0.1193324245D+00
  0.1881288500D+01 -0.1608541561D+00
  0.5442492600D+00  0.1143456443D+01
 s    1  1.00
  0.1687144800D+00  0.1000000000D+01
 p    3  1.00
  0.7868272300D+01  0.6899906693D-01
  0.1881288500D+01  0.3164239597D+00
  0.5442492600D+00  0.7443082892D+00
 p    1  1.00
  0.1687144800D+00  0.1000000000D+01
  
   3 0
 s    6  1.00
  0.3047524900D+04  0.1834737091D-02
  0.4573695200D+03  0.1403732293D-01
  0.1039486800D+03  0.6884262165D-01
  0.2921015500D+02  0.2321844388D+00
  0.9286663000D+01  0.4679413476D+00
  0.3163927000D+01  0.3623119882D+00
 s    3  1.00
  0.7868272300D+01 -0.1193324245D+00
  0.1881288500D+01 -0.1608541561D+00
  0.5442492600D+00  0.1143456443D+01
 s    1  1.00
  0.1687144800D+00  0.1000000000D+01
 p    3  1.00
  0.7868272300D+01  0.6899906693D-01
  0.1881288500D+01  0.3164239597D+00
  0.5442492600D+00  0.7443082892D+00
 p    1  1.00
  0.1687144800D+00  0.1000000000D+01
  
   4 0
 s    6  1.00
  0.3047524900D+04  0.1834737091D-02
  0.4573695200D+03  0.1403732293D-01
  0.1039486800D+03  0.6884262165D-01
  0.2921015500D+02  0.2321844388D+00
  0.9286663000D+01  0.4679413476D+00
  0.3163927000D+01  0.3623119882D+00
 s    3  1.00
  0.7868272300D+01 -0.1193324245D+00
  0.1881288500D+01 -0.1608541561D+00
  0.5442492600D+00  0.1143456443D+01
 s    1  1.00
  0.1687144800D+00  0.1000000000D+01
 p    3  1.00
  0.7868272300D+01  0.6899906693D-01
  0.1881288500D+01  0.3164239597D+00
  0.5442492600D+00  0.7443082892D+00
 p    1  1.00
  0.1687144800D+00  0.1000000000D+01
  
   5 0
 s    3  1.00
  0.1873113700D+02  0.3349460400D-01
  0.2825394400D+01  0.2347269500D+00
  0.6401216900D+00  0.8137573301D+00
 s    1  1.00
  0.1612777600D+00  0.1000000000D+01
  
   6 0
 s    3  1.00
  0.1873113700D+02  0.3349460400D-01
  0.2825394400D+01  0.2347269500D+00
  0.6401216900D+00  0.8137573301D+00
 s    1  1.00
  0.1612777600D+00  0.1000000000D+01
  
   7 0
 s    3  1.00
  0.1873113700D+02  0.3349460400D-01
  0.2825394400D+01  0.2347269500D+00
  0.6401216900D+00  0.8137573301D+00
 s    1  1.00
  0.1612777600D+00  0.1000000000D+01
  
   8 0
 s    3  1.00
  0.1873113700D+02  0.3349460400D-01
  0.2825394400D+01  0.2347269500D+00
  0.6401216900D+00  0.8137573301D+00
 s    1  1.00
  0.1612777600D+00  0.1000000000D+01


[MO]
 Sym=      1.1
 Ene=     -11.2486
 Spin= Alpha
 Occup=    2.000000
1 0.49795001488444
2 0.011544295765240
3 -0.003072319081327
4 -0.000000000000000
5 0.000084771560368
6 0.000140555896631
7 0.000000000000000
8 -0.000070961196278
9 -0.000035125304031
10 0.49795001490529
11 0.011544295765713
12 -0.003072319081180
13 0.000000000000000
14 0.000084771560374
15 -0.000140555896638
16 -0.000000000000000
17 -0.000070961196080
18 0.000035125303936
19 0.49795001491996
20 0.011544295766116
21 -0.003072319081858
22 -0.000000000000000
23 -0.000084771560383
24 -0.000140555896649
25 -0.000000000000000
26 0.000070961196369
27 0.000035125304134
28 0.49795001489370
29 0.011544295765438
30 -0.003072319081098
31 -0.000000000000000
32 -0.000084771560373
33 0.000140555896633
34 0.000000000000001
35 0.000070961196153
36 -0.000035125303856
37 -0.000338052248886
38 0.000907216433375
39 -0.000338052248887
40 0.000907216433476
41 -0.000338052248901
42 0.000907216433414
43 -0.000338052248882
44 0.000907216433454
 Sym=      2.1
 Ene=     -11.2481
 Spin= Alpha
 Occup=    2.000000
1 0.49801122063448
2 0.012183862647482
3 -0.006484145244645
4 -0.000000000000001
5 0.000156547248040
6 0.000255990057393
7 0.000000000000001
8 -0.000192036659888
9 -0.001932088509863
10 -0.49801122060387
11 -0.012183862646760
12 0.006484145244374
13 0.000000000000000
14 -0.000156547248032
15 0.000255990057382
16 -0.000000000000000
17 0.000192036659837
18 -0.001932088509850
19 -0.49801122062086
20 -0.012183862647215
21 0.006484145245058
22 0.000000000000000
23 0.000156547248046
24 0.000255990057394
25 -0.000000000000000
26 -0.000192036660089
27 -0.001932088510037
28 0.49801122063736
29 0.012183862647584
30 -0.006484145245073
31 -0.000000000000000
32 -0.000156547248045
33 0.000255990057396
34 0.000000000000000
35 0.000192036660045
36 -0.001932088510029
37 -0.000202306791473
38 0.000644242549062
39 0.000202306791452
40 -0.000644242549018
41 0.000202306791463
42 -0.000644242548978
43 -0.000202306791475
44 0.000644242549016
 Sym=      3.1
 Ene=     -11.2471
 Spin= Alpha
 Occup=    2.000000
1 0.49821634734185
2 0.012541390912234
3 -0.009279783680589
4 0.000000000000001
5 0.000290143115383
6 0.000275291410538
7 0.000000000000000
8 -0.003335370775276
9 -0.000505226754689
10 0.49821634736267
11 0.012541390912768
12 -0.009279783681168
13 -0.000000000000001
14 0.000290143115395
15 -0.000275291410551
16 -0.000000000000000
17 -0.003335370775413
18 0.000505226754828
19 -0.49821634734367
20 -0.012541390912320
21 0.009279783681008
22 -0.000000000000000
23 0.000290143115391
24 0.000275291410543
25 0.000000000000001
26 -0.003335370775408
27 -0.000505226754802
28 -0.49821634733694
29 -0.012541390912126
30 0.009279783680601
31 0.000000000000000
32 0.000290143115384
33 -0.000275291410537
34 -0.000000000000001
35 -0.003335370775276
36 0.000505226754710
37 -0.000220901679797
38 0.000354106332809
39 -0.000220901679803
40 0.000354106332819
41 0.000220901679792
42 -0.000354106332788
43 0.000220901679792
44 -0.000354106332798
 Sym=      4.1
 Ene=     -11.2466
 Spin= Alpha
 Occup=    2.000000
1 0.49833296475268
2 0.013587439224753
3 -0.023156478258816
4 0.000000000000000
5 0.000397427936624
6 0.000378983045832
7 -0.000000000000001
8 -0.007746918706417
9 -0.006699988520912
10 -0.49833296474161
11 -0.013587439224466
12 0.023156478258572
13 -0.000000000000000
14 -0.000397427936617
15 0.000378983045825
16 0.000000000000000
17 0.007746918706325
18 -0.006699988520899
19 0.49833296472898
20 0.013587439224161
21 -0.023156478258427
22 0.000000000000000
23 -0.000397427936613
24 -0.000378983045819
25 -0.000000000000000
26 0.007746918706320
27 0.006699988520860
28 -0.49833296474546
29 -0.013587439224570
30 0.023156478258701
31 -0.000000000000000
32 0.000397427936623
33 -0.000378983045828
34 0.000000000000001
35 -0.007746918706415
36 0.006699988520875
37 -0.000203817997278
38 -0.001218746964294
39 0.000203817997273
40 0.001218746964301
41 -0.000203817997267
42 -0.001218746964319
43 0.000203817997276
44 0.001218746964303
 Sym=      5.1
 Ene=      -1.1633
 Spin= Alpha
 Occup=    2.000000
1 -0.11015129748551
2 0.21727218406012
3 0.12458459700316
4 -0.000000000000001
5 0.093115930787315
6 0.066991067909001
7 0.000000000000002
8 0.010606305636153
9 0.012099405562403
10 -0.11015129748551
11 0.21727218406012
12 0.12458459700310
13 0.000000000000000
14 0.093115930787316
15 -0.066991067909000
16 -0.000000000000002
17 0.010606305636134
18 -0.012099405562401
19 -0.11015129748551
20 0.21727218406011
21 0.12458459700319
22 -0.000000000000001
23 -0.093115930787310
24 -0.066991067909000
25 0.000000000000002
26 -0.010606305636181
27 -0.012099405562424
28 -0.11015129748551
29 0.21727218406012
30 0.12458459700312
31 0.000000000000000
32 -0.093115930787311
33 0.066991067909000
34 -0.000000000000002
35 -0.010606305636134
36 0.012099405562400
37 0.037421795780007
38 0.004944085059075
39 0.037421795780005
40 0.004944085059081
41 0.037421795780011
42 0.004944085059091
43 0.037421795780010
44 0.004944085059074
 Sym=      6.1
 Ene=      -0.9124
 Spin= Alpha
 Occup=    2.000000
1 -0.10693925069247
2 0.21628929715868
3 0.19519274260511
4 0.000000000000000
5 0.094480403342341
6 -0.084549343257802
7 -0.000000000000000
8 0.000023140824251
9 -0.018881679451994
10 0.10693925069246
11 -0.21628929715869
12 -0.19519274260503
13 0.000000000000000
14 -0.094480403342346
15 -0.084549343257802
16 0.000000000000001
17 -0.000023140824191
18 -0.018881679452017
19 0.10693925069247
20 -0.21628929715864
21 -0.19519274260554
22 0.000000000000001
23 0.094480403342336
24 -0.084549343257806
25 -0.000000000000000
26 0.000023140824473
27 -0.018881679451839
28 -0.10693925069247
29 0.21628929715866
30 0.19519274260547
31 -0.000000000000000
32 -0.094480403342341
33 -0.084549343257800
34 0.000000000000000
35 -0.000023140824405
36 -0.018881679451866
37 0.083497947259448
38 0.019671826856233
39 -0.083497947259445
40 -0.019671826856205
41 -0.083497947259458
42 -0.019671826856308
43 0.083497947259459
44 0.019671826856271
 Sym=      7.1
 Ene=      -0.8241
 Spin= Alpha
 Occup=    2.000000
1 -0.094906594117592
2 0.19412239095810
3 0.19765757022198
4 -0.000000000000000
5 -0.11442939751896
6 0.037998916842117
7 -0.000000000000001
8 -0.029935292042420
9 0.008866762818733
10 -0.094906594117587
11 0.19412239095814
12 0.19765757022160
13 0.000000000000000
14 -0.11442939751896
15 -0.037998916842122
16 0.000000000000001
17 -0.029935292042610
18 -0.008866762818551
19 0.094906594117584
20 -0.19412239095812
21 -0.19765757022163
22 -0.000000000000000
23 -0.11442939751898
24 0.037998916842119
25 -0.000000000000001
26 -0.029935292042620
27 0.008866762818550
28 0.094906594117591
29 -0.19412239095811
30 -0.19765757022196
31 -0.000000000000000
32 -0.11442939751898
33 -0.037998916842110
34 0.000000000000001
35 -0.029935292042422
36 -0.008866762818733
37 0.11137482255114
38 0.047033678176317
39 0.11137482255112
40 0.047033678176241
41 -0.11137482255113
42 -0.047033678176230
43 -0.11137482255115
44 -0.047033678176336
 Sym=      8.1
 Ene=      -0.6974
 Spin= Alpha
 Occup=    2.000000
1 -0.072839418302967
2 0.15483874536182
3 0.016315336365023
4 -0.000000000000001
5 -0.11702347880790
6 -0.10232503416385
7 -0.000000000000000
8 -0.12748020797047
9 -0.11832669658946
10 0.072839418302974
11 -0.15483874536182
12 -0.016315336365083
13 0.000000000000000
14 0.11702347880794
15 -0.10232503416389
16 -0.000000000000000
17 0.12748020797044
18 -0.11832669658945
19 -0.072839418302966
20 0.15483874536180
21 0.016315336365061
22 -0.000000000000000
23 0.11702347880793
24 0.10232503416385
25 -0.000000000000000
26 0.12748020797044
27 0.11832669658946
28 0.072839418302967
29 -0.15483874536182
30 -0.016315336365010
31 0.000000000000000
32 -0.11702347880796
33 0.10232503416389
34 0.000000000000000
35 -0.12748020797048
36 0.11832669658948
37 0.16098127407355
38 0.052276788023713
39 -0.16098127407358
40 -0.052276788023752
41 0.16098127407356
42 0.052276788023736
43 -0.16098127407358
44 -0.052276788023749
 Sym=      9.1
 Ene=      -0.6966
 Spin= Alpha
 Occup=    2.000000
1 0.021712562843981
2 -0.044038330920218
3 -0.074648585264384
4 -0.000000000000000
5 0.16644603142321
6 0.17358389720784
7 -0.000000000000000
8 0.058227604981996
9 0.061187796043070
10 0.021712562843968
11 -0.044038330920188
12 -0.074648585264363
13 0.000000000000000
14 0.16644603142318
15 -0.17358389720782
16 0.000000000000000
17 0.058227604981968
18 -0.061187796043025
19 0.021712562843973
20 -0.044038330920212
21 -0.074648585264317
22 0.000000000000000
23 -0.16644603142320
24 -0.17358389720784
25 0.000000000000001
26 -0.058227604982027
27 -0.061187796043102
28 0.021712562843961
29 -0.044038330920181
30 -0.074648585264335
31 -0.000000000000000
32 -0.16644603142317
33 0.17358389720782
34 -0.000000000000000
35 -0.058227604982049
36 0.061187796043086
37 -0.14623539235637
38 -0.083959270336064
39 -0.14623539235634
40 -0.083959270336071
41 -0.14623539235637
42 -0.083959270336052
43 -0.14623539235633
44 -0.083959270336000
 Sym=     10.1
 Ene=      -0.5514
 Spin= Alpha
 Occup=    2.000000
1 -0.017689613199120
2 0.035769747947302
3 0.046494916367656
4 0.000000000000000
5 0.28481078969014
6 0.068054184162038
7 -0.000000000000000
8 0.11764160866322
9 0.047199458888647
10 0.017689613199122
11 -0.035769747947297
12 -0.046494916367701
13 0.000000000000000
14 -0.28481078969013
15 0.068054184162034
16 0.000000000000001
17 -0.11764160866327
18 0.047199458888658
19 0.017689613199128
20 -0.035769747947281
21 -0.046494916368120
22 -0.000000000000001
23 0.28481078969011
24 0.068054184162028
25 -0.000000000000001
26 0.11764160866350
27 0.047199458888891
28 -0.017689613199131
29 0.035769747947272
30 0.046494916368183
31 -0.000000000000001
32 -0.28481078969012
33 0.068054184162018
34 -0.000000000000000
35 -0.11764160866353
36 0.047199458888894
37 -0.14572347050922
38 -0.11019507584265
39 0.14572347050922
40 0.11019507584263
41 0.14572347050920
42 0.11019507584250
43 -0.14572347050920
44 -0.11019507584249
 Sym=     11.1
 Ene=      -0.5324
 Spin= Alpha
 Occup=    2.000000
1 -0.000926648638306
2 0.010841151501478
3 -0.021882912933965
4 -0.000000000000000
5 0.23486387877169
6 -0.21754305237557
7 0.000000000000000
8 0.093640664106278
9 -0.10340796632116
10 -0.000926648638312
11 0.010841151501447
12 -0.021882912933420
13 -0.000000000000000
14 0.23486387877169
15 0.21754305237557
16 -0.000000000000001
17 0.093640664106619
18 0.10340796632093
19 -0.000926648638305
20 0.010841151501486
21 -0.021882912934002
22 -0.000000000000001
23 -0.23486387877168
24 0.21754305237558
25 -0.000000000000000
26 -0.093640664106283
27 0.10340796632119
28 -0.000926648638314
29 0.010841151501434
30 -0.021882912933383
31 -0.000000000000001
32 -0.23486387877168
33 -0.21754305237559
34 -0.000000000000000
35 -0.093640664106593
36 -0.10340796632096
37 -0.008557024371731
38 -0.012727625357011
39 -0.008557024371723
40 -0.012727625356876
41 -0.008557024371720
42 -0.012727625356991
43 -0.008557024371708
44 -0.012727625356885
 Sym=     13.1
 Ene=      -0.4572
 Spin= Alpha
 Occup=    2.000000
1 -0.027166735321260
2 0.053650863088652
3 0.14151832996408
4 0.000000000000001
5 0.028952787040912
6 0.28205228452681
7 0.000000000000001
8 0.054731724466997
9 0.18526621250078
10 -0.027166735321260
11 0.053650863088658
12 0.14151832996416
13 0.000000000000001
14 0.028952787040922
15 -0.28205228452681
16 0.000000000000000
17 0.054731724467038
18 -0.18526621250078
19 0.027166735321263
20 -0.053650863088640
21 -0.14151832996423
22 0.000000000000000
23 0.028952787040930
24 0.28205228452678
25 0.000000000000000
26 0.054731724467053
27 0.18526621250083
28 0.027166735321259
29 -0.053650863088677
30 -0.14151832996401
31 0.000000000000000
32 0.028952787040936
33 -0.28205228452678
34 -0.000000000000000
35 0.054731724466989
36 -0.18526621250071
37 -0.13516437972473
38 -0.10304159244657
39 -0.13516437972474
40 -0.10304159244657
41 0.13516437972473
42 0.10304159244656
43 0.13516437972473
44 0.10304159244659
 Sym=     14.1
 Ene=      -0.3689
 Spin= Alpha
 Occup=    2.000000
1 0.000000000000000
2 0.000000000000000
3 -0.000000000000008
4 -0.021144353618058
5 0.000000000000000
6 -0.000000000000001
7 -0.079837690805246
8 -0.000000000000005
9 -0.000000000000005
10 -0.000000000000000
11 -0.000000000000001
12 0.000000000000015
13 0.39028469568227
14 -0.000000000000000
15 0.000000000000001
16 0.32822172430961
17 0.000000000000012
18 -0.000000000000006
19 0.000000000000000
20 0.000000000000002
21 -0.000000000000016
22 0.39028469568226
23 0.000000000000001
24 -0.000000000000001
25 0.32822172430962
26 0.000000000000008
27 0.000000000000001
28 0.000000000000000
29 0.000000000000000
30 0.000000000000005
31 -0.021144353618052
32 -0.000000000000001
33 0.000000000000000
34 -0.079837690805246
35 -0.000000000000003
36 0.000000000000001
37 0.000000000000000
38 -0.000000000000002
39 0.000000000000000
40 0.000000000000005
41 0.000000000000000
42 0.000000000000001
43 -0.000000000000000
44 0.000000000000001
 Sym=     12.1
 Ene=      -0.3689
 Spin= Alpha
 Occup=    2.000000
1 -0.000000000000000
2 0.000000000000001
3 -0.000000000000011
4 0.39028469568227
5 0.000000000000001
6 -0.000000000000000
7 0.32822172430961
8 -0.000000000000006
9 -0.000000000000002
10 -0.000000000000000
11 -0.000000000000001
12 0.000000000000015
13 -0.021144353618049
14 -0.000000000000000
15 0.000000000000001
16 -0.079837690805236
17 0.000000000000012
18 -0.000000000000007
19 0.000000000000000
20 0.000000000000001
21 -0.000000000000017
22 -0.021144353618048
23 0.000000000000000
24 -0.000000000000000
25 -0.079837690805244
26 0.000000000000011
27 0.000000000000010
28 -0.000000000000000
29 -0.000000000000002
30 0.000000000000020
31 0.39028469568226
32 -0.000000000000001
33 0.000000000000001
34 0.32822172430961
35 -0.000000000000002
36 0.000000000000001
37 0.000000000000001
38 -0.000000000000001
39 0.000000000000000
40 0.000000000000006
41 -0.000000000000000
42 -0.000000000000007
43 -0.000000000000000
44 -0.000000000000006
 Sym=     15.1
 Ene=       0.1805
 Spin= Alpha
 Occup=    0.000000
1 0.000000000000000
2 -0.000000000000000
3 -0.000000000000007
4 0.37351513215074
5 -0.000000000000000
6 -0.000000000000002
7 0.76452776248543
8 -0.000000000000001
9 -0.000000000000007
10 -0.000000000000001
11 0.000000000000001
12 0.000000000000017
13 -0.016940361984388
14 -0.000000000000002
15 -0.000000000000000
16 -0.19348607846069
17 -0.000000000000005
18 -0.000000000000003
19 -0.000000000000000
20 0.000000000000001
21 0.000000000000015
22 0.016940361984396
23 0.000000000000002
24 -0.000000000000001
25 0.19348607846069
26 0.000000000000008
27 -0.000000000000001
28 0.000000000000001
29 -0.000000000000001
30 -0.000000000000004
31 -0.37351513215076
32 -0.000000000000000
33 -0.000000000000002
34 -0.76452776248543
35 -0.000000000000005
36 -0.000000000000004
37 0.000000000000000
38 -0.000000000000003
39 -0.000000000000000
40 -0.000000000000011
41 -0.000000000000000
42 -0.000000000000015
43 -0.000000000000001
44 0.000000000000001
 Sym=     16.1
 Ene=       0.1805
 Spin= Alpha
 Occup=    0.000000
1 -0.000000000000000
2 0.000000000000000
3 0.000000000000006
4 -0.016940361984396
5 -0.000000000000000
6 0.000000000000002
7 -0.19348607846072
8 -0.000000000000000
9 0.000000000000007
10 0.000000000000001
11 -0.000000000000001
12 -0.000000000000018
13 0.37351513215075
14 0.000000000000002
15 0.000000000000001
16 0.76452776248543
17 0.000000000000005
18 0.000000000000003
19 0.000000000000001
20 -0.000000000000001
21 -0.000000000000015
22 -0.37351513215076
23 -0.000000000000002
24 0.000000000000000
25 -0.76452776248543
26 -0.000000000000008
27 0.000000000000001
28 -0.000000000000001
29 0.000000000000001
30 0.000000000000005
31 0.016940361984400
32 0.000000000000001
33 0.000000000000002
34 0.19348607846071
35 0.000000000000004
36 0.000000000000005
37 0.000000000000001
38 0.000000000000004
39 0.000000000000000
40 0.000000000000011
41 0.000000000000000
42 0.000000000000014
43 0.000000000000000
44 -0.000000000000000
 Sym=     17.1
 Ene=       0.2732
 Spin= Alpha
 Occup=    0.000000
1 0.038439635677060
2 -0.029509791610750
3 -0.83330353686111
4 0.000000000000003
5 0.10788183243011
6 0.11062373105288
7 0.000000000000006
8 0.34273226285084
9 0.30677123452703
10 0.038439635678535
11 -0.029509791612294
12 -0.83330353688555
13 -0.000000000000003
14 0.10788183243227
15 -0.11062373105080
16 -0.000000000000006
17 0.34273226285961
18 -0.30677123452091
19 0.038439635678468
20 -0.029509791612578
21 -0.83330353688262
22 0.000000000000002
23 -0.10788183243228
24 -0.11062373105079
25 0.000000000000006
26 -0.34273226286156
27 -0.30677123452172
28 0.038439635677103
29 -0.029509791610687
30 -0.83330353686268
31 -0.000000000000002
32 -0.10788183243017
33 0.11062373105289
34 -0.000000000000005
35 -0.34273226285119
36 0.30677123452734
37 0.047624092169230
38 1.08324342980186
39 0.047624092169113
40 1.08324342981591
41 0.047624092169113
42 1.08324342981650
43 0.047624092169243
44 1.08324342980308
 Sym=     18.1
 Ene=       0.2766
 Spin= Alpha
 Occup=    0.000000
1 -0.075172847973429
2 0.094512277454496
3 1.14905329761829
4 0.000000000000003
5 -0.10873440534323
6 0.11757504759436
7 0.000000000000009
8 -0.46905160372920
9 0.36357988011915
10 0.075172847972729
11 -0.094512277453759
12 -1.14905329760359
13 -0.000000000000003
14 0.10873440534114
15 0.11757504759645
16 -0.000000000000009
17 0.46905160372232
18 0.36357988012473
19 0.075172847973004
20 -0.094512277455724
21 -1.14905329758772
22 0.000000000000004
23 -0.10873440534167
24 0.11757504759650
25 0.000000000000009
26 -0.46905160373802
27 0.36357988011264
28 -0.075172847973779
29 0.094512277456255
30 1.14905329760469
31 -0.000000000000004
32 0.10873440534376
33 0.11757504759431
34 -0.000000000000010
35 0.46905160374418
36 0.36357988010658
37 0.006540845899905
38 -0.64988919619948
39 -0.006540845900831
40 0.64988919617923
41 -0.006540845900487
42 0.64988919619263
43 0.006540845899584
44 -0.64988919621372
 Sym=     19.1
 Ene=       0.2866
 Spin= Alpha
 Occup=    0.000000
1 0.060007054448325
2 -0.16804940897931
3 0.55518415624257
4 0.000000000000000
5 0.073836488541386
6 0.007377165075086
7 0.000000000000001
8 1.21671565003331
9 1.04065389350747
10 -0.060007054448456
11 0.16804940897925
12 -0.55518415623958
13 -0.000000000000000
14 -0.073836488541456
15 0.007377165075345
16 -0.000000000000001
17 -1.21671565003351
18 1.04065389350927
19 0.060007054447899
20 -0.16804940897847
21 0.55518415624766
22 0.000000000000001
23 -0.073836488540635
24 -0.007377165076333
25 0.000000000000001
26 -1.21671565003031
27 -1.04065389351232
28 -0.060007054447734
29 0.16804940897837
30 -0.55518415625134
31 -0.000000000000000
32 0.073836488540532
33 -0.007377165075985
34 -0.000000000000002
35 1.21671565002970
36 -1.04065389351024
37 0.036052799685119
38 1.50698550424294
39 -0.036052799685044
40 -1.50698550424576
41 0.036052799685099
42 1.50698550424166
43 -0.036052799685167
44 -1.50698550423783
 Sym=     20.1
 Ene=       0.3178
 Spin= Alpha
 Occup=    0.000000
1 0.061056070691030
2 -0.070078234694263
3 -1.23287542476535
4 -0.000000000000001
5 0.027819117412972
6 0.12088077795038
7 -0.000000000000001
8 0.036725003230095
9 0.66531745589556
10 0.061056070690714
11 -0.070078234693982
12 -1.23287542475883
13 0.000000000000000
14 0.027819117412795
15 -0.12088077795051
16 0.000000000000000
17 0.036725003231369
18 -0.66531745589707
19 -0.061056070690745
20 0.070078234694224
21 1.23287542475877
22 0.000000000000000
23 0.027819117412750
24 0.12088077795029
25 0.000000000000001
26 0.036725003231183
27 0.66531745589624
28 -0.061056070690977
29 0.070078234694072
30 1.23287542476489
31 -0.000000000000001
32 0.027819117412972
33 -0.12088077795052
34 -0.000000000000001
35 0.036725003230060
36 -0.66531745589623
37 -0.023717737914647
38 1.14324277811248
39 -0.023717737914729
40 1.14324277811088
41 0.023717737914772
42 -1.14324277811006
43 0.023717737914665
44 -1.14324277811271
 Sym=     21.1
 Ene=       0.3437
 Spin= Alpha
 Occup=    0.000000
1 -0.017232896632630
2 0.009891825599929
3 -0.002112082071386
4 -0.000000000000000
5 0.10470264749100
6 0.19987711704259
7 0.000000000000000
8 0.42490799191563
9 1.01334338340481
10 0.017232896632742
11 -0.009891825600134
12 0.002112082069095
13 0.000000000000000
14 -0.10470264749089
15 0.19987711704237
16 -0.000000000000001
17 -0.42490799191651
18 1.01334338340453
19 0.017232896632588
20 -0.009891825600497
21 0.002112082077535
22 0.000000000000000
23 0.10470264749085
24 0.19987711704245
25 0.000000000000001
26 0.42490799191163
27 1.01334338340121
28 -0.017232896632622
29 0.009891825600487
30 -0.002112082076550
31 0.000000000000000
32 -0.10470264749101
33 0.19987711704250
34 -0.000000000000001
35 -0.42490799191304
36 1.01334338340139
37 0.000593958289708
38 1.16973991028629
39 -0.000593958289714
40 -1.16973991028524
41 -0.000593958289637
42 -1.16973991028352
43 0.000593958289735
44 1.16973991028437
 Sym=     22.1
 Ene=       0.4223
 Spin= Alpha
 Occup=    0.000000
1 -0.051538661614727
2 0.038169113779266
3 1.47536895376428
4 0.000000000000001
5 0.12678086634488
6 0.091431894847054
7 -0.000000000000001
8 1.70420555413415
9 0.27795494037379
10 -0.051538661614640
11 0.038169113779571
12 1.47536895375919
13 -0.000000000000001
14 0.12678086634490
15 -0.091431894846728
16 0.000000000000000
17 1.70420555413204
18 -0.27795494036941
19 0.051538661614678
20 -0.038169113779704
21 -1.47536895375948
22 0.000000000000000
23 0.12678086634488
24 0.091431894846779
25 -0.000000000000001
26 1.70420555413206
27 0.27795494036988
28 0.051538661614730
29 -0.038169113779327
30 -1.47536895376443
31 -0.000000000000000
32 0.12678086634478
33 -0.091431894846740
34 -0.000000000000000
35 1.70420555413387
36 -0.27795494037326
37 0.014994028452250
38 0.87279829633191
39 0.014994028452300
40 0.87279829632967
41 -0.014994028452247
42 -0.87279829632983
43 -0.014994028452246
44 -0.87279829633098
 Sym=     23.1
 Ene=       0.4877
 Spin= Alpha
 Occup=    0.000000
1 -0.016066989213456
2 0.008298586025563
3 0.17756065999173
4 -0.000000000000000
5 -0.14020363229779
6 0.22588125670179
7 -0.000000000000001
8 -0.74485080471286
9 1.56722963663740
10 0.016066989213502
11 -0.008298586025742
12 -0.17756065999271
13 -0.000000000000001
14 0.14020363229763
15 0.22588125670190
16 0.000000000000001
17 0.74485080471178
18 1.56722963663737
19 -0.016066989213489
20 0.008298586025599
21 0.17756065999270
22 -0.000000000000001
23 0.14020363229761
24 -0.22588125670198
25 -0.000000000000001
26 0.74485080471161
27 -1.56722963663746
28 0.016066989213455
29 -0.008298586025470
30 -0.17756065999176
31 -0.000000000000000
32 -0.14020363229777
33 -0.22588125670171
34 0.000000000000001
35 -0.74485080471275
36 -1.56722963663760
37 -0.047177867502389
38 0.40038515141802
39 0.047177867502366
40 -0.40038515141849
41 -0.047177867502418
42 0.40038515141884
43 0.047177867502406
44 -0.40038515141820
 Sym=     24.1
 Ene=       0.6854
 Spin= Alpha
 Occup=    0.000000
1 -0.007958322005242
2 -0.11125413320576
3 -0.040364390999591
4 0.000000000000001
5 -0.37802126411501
6 0.24800274423686
7 -0.000000000000001
8 0.52699369815031
9 -0.23593268871824
10 -0.007958322005013
11 -0.11125413320579
12 -0.040364391010181
13 -0.000000000000000
14 -0.37802126411512
15 -0.24800274423673
16 0.000000000000000
17 0.52699369814361
18 0.23593268872265
19 -0.007958322005243
20 -0.11125413320580
21 -0.040364390999430
22 0.000000000000000
23 0.37802126411502
24 -0.24800274423691
25 -0.000000000000000
26 -0.52699369815044
27 0.23593268871824
28 -0.007958322005010
29 -0.11125413320574
30 -0.040364391010166
31 0.000000000000000
32 0.37802126411511
33 0.24800274423681
34 -0.000000000000001
35 -0.52699369814364
36 -0.23593268872279
37 0.037080961695329
38 0.062054549325016
39 0.037080961695624
40 0.062054549322080
41 0.037080961695352
42 0.062054549325072
43 0.037080961695651
44 0.062054549322055
 Sym=     25.1
 Ene=       0.7185
 Spin= Alpha
 Occup=    0.000000
1 -0.13086135248905
2 0.034251326387558
3 5.65451585013282
4 -0.000000000000000
5 0.066421908542261
6 0.11572265559678
7 0.000000000000000
8 3.63820717594156
9 2.34580361909483
10 0.13086135248911
11 -0.034251326389135
12 -5.65451585013085
13 -0.000000000000001
14 -0.066421908541628
15 0.11572265559717
16 0.000000000000001
17 -3.63820717594252
18 2.34580361909463
19 -0.13086135248916
20 0.034251326390334
21 5.65451585012837
22 0.000000000000000
23 -0.066421908541709
24 -0.11572265559804
25 -0.000000000000001
26 -3.63820717594149
27 -2.34580361909241
28 0.13086135248912
29 -0.034251326389888
30 -5.65451585012876
31 -0.000000000000001
32 0.066421908541197
33 -0.11572265559880
34 0.000000000000002
35 3.63820717594238
36 -2.34580361909185
37 -0.20973052521710
38 1.66735194396568
39 0.20973052521650
40 -1.66735194396578
41 -0.20973052521729
42 1.66735194396535
43 0.20973052521678
44 -1.66735194396531
 Sym=     26.1
 Ene=       0.7426
 Spin= Alpha
 Occup=    0.000000
1 0.001923497442789
2 -0.58350010664869
3 0.74704569866392
4 -0.000000000000000
5 0.052728063793112
6 0.050935564810854
7 0.000000000000000
8 -0.21363680783327
9 -0.23135944284260
10 0.001923497442630
11 -0.58350010664892
12 0.74704569867072
13 0.000000000000001
14 0.052728063793140
15 -0.050935564811270
16 -0.000000000000001
17 -0.21363680782911
18 0.23135944283999
19 0.001923497442768
20 -0.58350010664887
21 0.74704569866424
22 0.000000000000001
23 -0.052728063793135
24 -0.050935564811112
25 -0.000000000000000
26 0.21363680783329
27 0.23135944284289
28 0.001923497442632
29 -0.58350010664862
30 0.74704569867049
31 0.000000000000000
32 -0.052728063793270
33 0.050935564811044
34 -0.000000000000000
35 0.21363680782914
36 -0.23135944283989
37 -0.39447706529221
38 -0.083624624291915
39 -0.39447706529256
40 -0.083624624289954
41 -0.39447706529236
42 -0.083624624291979
43 -0.39447706529243
44 -0.083624624290002
 Sym=     27.1
 Ene=       0.7716
 Spin= Alpha
 Occup=    0.000000
1 0.032543481796118
2 0.16714656455409
3 -0.047063478574865
4 0.000000000000005
5 0.25754644760215
6 -0.41144051373851
7 -0.000000000000005
8 -0.26828825266798
9 0.40770454769555
10 -0.032543481796111
11 -0.16714656455374
12 0.047063478574330
13 0.000000000000002
14 -0.25754644760212
15 -0.41144051373858
16 -0.000000000000001
17 0.26828825266798
18 0.40770454769555
19 -0.032543481795890
20 -0.16714656455424
21 0.047063478567065