[Molden Format]
[Atoms] Angs
C     1    6         1.0248323800        0.0000000000        0.0000000000
C     2    6         0.0000000000       -1.0248323800        0.0000000000
C     3    6        -1.0248323800        0.0000000000        0.0000000000
C     4    6         0.0000000000        1.0248323800        0.0000000000
H     5    1         2.1005277400        0.0000000000        0.0000000000
H     6    1         0.0000000000       -2.1005277400        0.0000000000
H     7    1        -2.1005277400        0.0000000000        0.0000000000
H     8    1         0.0000000000        2.1005277400        0.0000000000
[GTO]
   1 0
 s    6  1.00
  0.3047524900D+04  0.1834737091D-02
  0.4573695200D+03  0.1403732293D-01
  0.1039486800D+03  0.6884262165D-01
  0.2921015500D+02  0.2321844388D+00
  0.9286663000D+01  0.4679413476D+00
  0.3163927000D+01  0.3623119882D+00
 s    3  1.00
  0.7868272300D+01 -0.1193324245D+00
  0.1881288500D+01 -0.1608541561D+00
  0.5442492600D+00  0.1143456443D+01
 s    1  1.00
  0.1687144800D+00  0.1000000000D+01
 p    3  1.00
  0.7868272300D+01  0.6899906693D-01
  0.1881288500D+01  0.3164239597D+00
  0.5442492600D+00  0.7443082892D+00
 p    1  1.00
  0.1687144800D+00  0.1000000000D+01
  
   2 0
 s    6  1.00
  0.3047524900D+04  0.1834737091D-02
  0.4573695200D+03  0.1403732293D-01
  0.1039486800D+03  0.6884262165D-01
  0.2921015500D+02  0.2321844388D+00
  0.9286663000D+01  0.4679413476D+00
  0.3163927000D+01  0.3623119882D+00
 s    3  1.00
  0.7868272300D+01 -0.1193324245D+00
  0.1881288500D+01 -0.1608541561D+00
  0.5442492600D+00  0.1143456443D+01
 s    1  1.00
  0.1687144800D+00  0.1000000000D+01
 p    3  1.00
  0.7868272300D+01  0.6899906693D-01
  0.1881288500D+01  0.3164239597D+00
  0.5442492600D+00  0.7443082892D+00
 p    1  1.00
  0.1687144800D+00  0.1000000000D+01
  
   3 0
 s    6  1.00
  0.3047524900D+04  0.1834737091D-02
  0.4573695200D+03  0.1403732293D-01
  0.1039486800D+03  0.6884262165D-01
  0.2921015500D+02  0.2321844388D+00
  0.9286663000D+01  0.4679413476D+00
  0.3163927000D+01  0.3623119882D+00
 s    3  1.00
  0.7868272300D+01 -0.1193324245D+00
  0.1881288500D+01 -0.1608541561D+00
  0.5442492600D+00  0.1143456443D+01
 s    1  1.00
  0.1687144800D+00  0.1000000000D+01
 p    3  1.00
  0.7868272300D+01  0.6899906693D-01
  0.1881288500D+01  0.3164239597D+00
  0.5442492600D+00  0.7443082892D+00
 p    1  1.00
  0.1687144800D+00  0.1000000000D+01
  
   4 0
 s    6  1.00
  0.3047524900D+04  0.1834737091D-02
  0.4573695200D+03  0.1403732293D-01
  0.1039486800D+03  0.6884262165D-01
  0.2921015500D+02  0.2321844388D+00
  0.9286663000D+01  0.4679413476D+00
  0.3163927000D+01  0.3623119882D+00
 s    3  1.00
  0.7868272300D+01 -0.1193324245D+00
  0.1881288500D+01 -0.1608541561D+00
  0.5442492600D+00  0.1143456443D+01
 s    1  1.00
  0.1687144800D+00  0.1000000000D+01
 p    3  1.00
  0.7868272300D+01  0.6899906693D-01
  0.1881288500D+01  0.3164239597D+00
  0.5442492600D+00  0.7443082892D+00
 p    1  1.00
  0.1687144800D+00  0.1000000000D+01
  
   5 0
 s    3  1.00
  0.1873113700D+02  0.3349460400D-01
  0.2825394400D+01  0.2347269500D+00
  0.6401216900D+00  0.8137573301D+00
 s    1  1.00
  0.1612777600D+00  0.1000000000D+01
  
   6 0
 s    3  1.00
  0.1873113700D+02  0.3349460400D-01
  0.2825394400D+01  0.2347269500D+00
  0.6401216900D+00  0.8137573301D+00
 s    1  1.00
  0.1612777600D+00  0.1000000000D+01
  
   7 0
 s    3  1.00
  0.1873113700D+02  0.3349460400D-01
  0.2825394400D+01  0.2347269500D+00
  0.6401216900D+00  0.8137573301D+00
 s    1  1.00
  0.1612777600D+00  0.1000000000D+01
  
   8 0
 s    3  1.00
  0.1873113700D+02  0.3349460400D-01
  0.2825394400D+01  0.2347269500D+00
  0.6401216900D+00  0.8137573301D+00
 s    1  1.00
  0.1612777600D+00  0.1000000000D+01


[MO]
 Sym=      3.1
 Ene=     -11.2309
 Spin= Alpha
 Occup=    2.000000
1 0.000000007547709
2 0.000000000931561
3 -0.000000003402897
4 -0.000000000037962
5 0.000172461347033
6 0.0
7 0.000000004400984
8 -0.002173713631746
9 0.0
10 0.70437120531240
11 0.017671201252375
12 -0.010645029593483
13 0.000000002578041
14 0.000868386092225
15 0.0
16 -0.000000000402540
17 -0.003315383542918
18 0.0
19 -0.000000007509389
20 -0.000000000918012
21 0.000000003287309
22 -0.000000000034292
23 0.000172461347033
24 0.0
25 0.000000004342567
26 -0.002173713631747
27 0.0
28 -0.70437121117600
29 -0.017671201402018
30 0.010645029743305
31 0.000000002578041
32 0.000868386099734
33 0.0
34 -0.000000000402541
35 -0.003315383603837
36 0.0
37 -0.000000000310098
38 -0.000000001678235
39 -0.000320872168437
40 0.000434215679252
41 0.000000000311073
42 0.000000001666055
43 0.000320872171493
44 -0.000434215676375
 Sym=      4.1
 Ene=     -11.2308
 Spin= Alpha
 Occup=    2.000000
1 0.004601863932899
2 0.001626735333346
3 -0.013877186208583
4 -0.000440803891774
5 -0.000000000332299
6 0.0
7 0.007012181280981
8 0.000000000823649
9 0.0
10 -0.70439597588694
11 -0.017975697461689
12 0.017989655530644
13 -0.000000002183382
14 -0.000901890419681
15 0.0
16 0.000000001835384
17 0.007312586172658
18 0.0
19 0.004601863932904
20 0.001626735333346
21 -0.013877186208584
22 0.000440803891774
23 0.000000000330864
24 0.0
25 -0.007012181280977
26 -0.000000000805556
27 0.0
28 -0.70439597002354
29 -0.017975697314591
30 0.017989655442037
31 0.000000002183383
32 0.000901890412453
33 0.0
34 -0.000000001835384
35 -0.007312586145063
36 0.0
37 0.000117317776745
38 -0.001461709316764
39 0.000366973262745
40 0.000344000200855
41 0.000117317776745
42 -0.001461709316761
43 0.000366973260074
44 0.000344000204470
 Sym=      2.1
 Ene=     -11.2306
 Spin= Alpha
 Occup=    2.000000
1 0.70452167242723
2 0.017280424473209
3 -0.011275447125660
4 -0.000171830184175
5 -0.000000003052727
6 0.0
7 0.002722846073144
8 0.000000000664589
9 0.0
10 -0.000000006864729
11 0.000000000580148
12 -0.000000003199969
13 -0.000025414193681
14 -0.000000000034807
15 0.0
16 0.002350569255751
17 -0.000000004864609
18 0.0
19 -0.70452166941922
20 -0.017280424398363
21 0.011275447042847
22 -0.000171830183572
23 -0.000000003052728
24 0.0
25 0.002722846040978
26 0.000000000664591
27 0.0
28 0.000000006882361
29 -0.000000000586101
30 0.000000003263340
31 -0.000025414193681
32 -0.000000000033839
33 0.0
34 0.002350569255753
35 -0.000000004897486
36 0.0
37 -0.000272080140205
38 0.000885217631316
39 -0.000000000369065
40 -0.000000001934305
41 0.000272080138568
42 -0.000885217632088
43 0.000000000368707
44 0.000000001941438
 Sym=      1.1
 Ene=     -11.2306
 Spin= Alpha
 Occup=    2.000000
1 0.70454381832233
2 0.017532000521112
3 -0.019411373209023
4 -0.000141480404674
5 -0.000000002606492
6 0.0
7 0.007544753494210
8 0.000000002199575
9 0.0
10 0.004130928987420
11 -0.001395568531244
12 0.014858019658714
13 -0.000000000458271
14 -0.000227029923218
15 0.0
16 0.000000000954120
17 0.007711003443606
18 0.0
19 0.70454382133025
20 0.017532000594890
21 -0.019411373257163
22 0.000141480405408
23 0.000000002606491
24 0.0
25 -0.007544753505839
26 -0.000000002199574
27 0.0
28 0.004130928987433
29 -0.001395568531243
30 0.014858019658714
31 0.000000000458380
32 0.000227029923217
33 0.0
34 -0.000000000964156
35 -0.007711003443606
36 0.0
37 -0.000383765519032
38 -0.000184397119131
39 -0.000083428467586
40 0.001673570485994
41 -0.000383765520193
42 -0.000184397115353
43 -0.000083428467586
44 0.001673570485995
 Sym=      5.1
 Ene=      -1.1608
 Spin= Alpha
 Occup=    2.000000
1 -0.10904116837272
2 0.21651960148481
3 0.12319457519183
4 -0.11463957685650
5 0.000000000283602
6 0.0
7 -0.016938398380571
8 0.000000000012539
9 0.0
10 -0.10947738358962
11 0.21649689378335
12 0.12323950597433
13 -0.000000000245666
14 0.11460615087504
15 0.0
16 -0.000000000021651
17 0.016959816517077
18 0.0
19 -0.10904116837273
20 0.21651960148480
21 0.12319457519198
22 0.11463957685640
23 -0.000000000283938
24 0.0
25 0.016938398380790
26 -0.000000000013976
27 0.0
28 -0.10947738359002
29 0.21649689378427
30 0.12323950597765
31 0.000000000245649
32 -0.11460615087506
33 0.0
34 0.000000000021726
35 -0.016959816517381
36 0.0
37 0.036941247513807
38 0.005392300766903
39 0.036947357241518
40 0.005398386476821
41 0.036941247513777
42 0.005392300767026
43 0.036947357241710
44 0.005398386475534
 Sym=      6.1
 Ene=      -0.8599
 Spin= Alpha
 Occup=    2.000000
1 0.000001519047391
2 -0.000003099047495
3 -0.000003018699721
4 -0.000000343895823
5 -0.16777404685012
6 0.0
7 -0.000000193484330
8 -0.029146636829544
9 0.0
10 -0.14271807550120
11 0.29035136724182
12 0.28285075704622
13 -0.000001791286183
14 -0.032328169318000
15 0.0
16 -0.000000311306183
17 -0.018136813774482
18 0.0
19 -0.000001519047701
20 0.000003099048086
21 0.000003018699957
22 -0.000000343895812
23 -0.16777404685012
24 0.0
25 -0.000000193484783
26 -0.029146636829669
27 0.0
28 0.14271807550127
29 -0.29035136724179
30 -0.28285075704626
31 -0.000001791286152
32 -0.032328169318904
33 0.0
34 -0.000000311306336
35 -0.018136813775147
36 0.0
37 -0.000001469158841
38 -0.000000511162895
39 0.13769584526450
40 0.047914186339269
41 0.000001469158888
42 0.000000511162874
43 -0.13769584526526
44 -0.047914186339732
 Sym=      7.1
 Ene=      -0.8598
 Spin= Alpha
 Occup=    2.000000
1 -0.14231414528313
2 0.29036433302562
3 0.28284967508719
4 0.032236748748441
5 -0.000001790276701
6 0.0
7 0.018134428804683
8 -0.000000311011816
9 0.0
10 -0.000001522982139
11 0.000003098796089
12 0.000003018896528
13 0.16781240009741
14 -0.000000345199537
15 0.0
16 0.029163294449769
17 -0.000000193615867
18 0.0
19 0.14231414528317
20 -0.29036433302561
21 -0.28284967508755
22 0.032236748748595
23 -0.000001790276840
24 0.0
25 0.018134428804452
26 -0.000000311011873
27 0.0
28 0.000001522982115
29 -0.000003098795949
30 -0.000003018896289
31 0.16781240009760
32 -0.000000345199725
33 0.0
34 0.029163294449689
35 -0.000000193615914
36 0.0
37 0.13766706983313
38 0.047902500745347
39 0.000001469725021
40 0.000000511472642
41 -0.13766706983311
42 -0.047902500745420
43 -0.000001469725023
44 -0.000000511472494
 Sym=      8.1
 Ene=      -0.6918
 Spin= Alpha
 Occup=    2.000000
1 0.014424277174445
2 -0.026988368698018
3 -0.073882674321911
4 -0.21936763877987
5 -0.000000000158624
6 0.0
7 -0.065854178356729
8 -0.000000000078413
9 0.0
10 0.030454410806474
11 -0.061001580025556
12 -0.079615415227567
13 0.000000000190583
14 0.25364653950656
15 0.0
16 0.000000000101259
17 0.10343199239994
18 0.0
19 0.014424277174380
20 -0.026988368697767
21 -0.073882674321466
22 0.21936763877977
23 0.000000000160743
24 0.0
25 0.065854178356721
26 0.000000000080649
27 0.0
28 0.030454410806462
29 -0.061001580026097
30 -0.079615415230336
31 -0.000000000190507
32 -0.25364653950731
33 0.0
34 -0.000000000101127
35 -0.10343199239947
36 0.0
37 -0.12764677943140
38 -0.078070127233296
39 -0.16351028670009
40 -0.090342997380428
41 -0.12764677943141
42 -0.078070127233772
43 -0.16351028670040
44 -0.090342997379134
 Sym=      9.1
 Ene=      -0.6914
 Spin= Alpha
 Occup=    2.000000
1 -0.074711917122823
2 0.15673558554632
3 0.034374429491440
4 0.17953695057521
5 0.000000000197803
6 0.0
7 0.17734882413385
8 0.000000000160072
9 0.0
10 0.069746401300812
11 -0.14690129225138
12 -0.017175775377627
13 0.000000000082805
14 0.12663393108067
15 0.0
16 0.000000000118411
17 0.15838792774809
18 0.0
19 -0.074711917122813
20 0.15673558554613
21 0.034374429492146
22 -0.17953695057528
23 -0.000000000196971
24 0.0
25 -0.17734882413337
26 -0.000000000159047
27 0.0
28 0.069746401300451
29 -0.14690129224972
30 -0.017175775379247
31 -0.000000000082724
32 -0.12663393108239
33 0.0
34 -0.000000000117964
35 -0.15838792774554
36 0.0
37 0.17654236963035
38 0.064361306130652
39 -0.14395895473813
40 -0.045503839169168
41 0.17654236963024
42 0.064361306130884
43 -0.14395895473777
44 -0.045503839170267
 Sym=     10.1
 Ene=      -0.5279
 Spin= Alpha
 Occup=    2.000000
1 0.000000000933643
2 0.000000000045237
3 -0.000000000047384
4 -0.000000000079201
5 0.32054451257807
6 0.0
7 0.000000000042653
8 0.14059723331194
9 0.0
10 0.000000000853821
11 0.000000000030158
12 -0.000000000133003
13 -0.32057171884023
14 0.000000000022990
15 0.0
16 -0.14062614101785
17 -0.000000000121101
18 0.0
19 0.000000000933928
20 0.000000000044194
21 -0.000000000047235
22 0.000000000073004
23 -0.32054451257812
24 0.0
25 -0.000000000046656
26 -0.14059723331194
27 0.0
28 0.000000000853825
29 0.000000000030154
30 -0.000000000132924
31 0.32057171884344
32 -0.000000000022783
33 0.0
34 0.14062614101842
35 0.000000000121338
36 0.0
37 -0.000000000181737
38 -0.000000000236207
39 -0.000000000134920
40 -0.000000000211618
41 -0.000000000179463
42 -0.000000000237534
43 -0.000000000134868
44 -0.000000000211898
 Sym=     11.1
 Ene=      -0.5017
 Spin= Alpha
 Occup=    2.000000
1 0.000000387934737
2 -0.000000795397148
3 -0.000001592661972
4 0.000004027481226
5 -0.23661695248790
6 0.0
7 0.000002462620703
8 -0.096205227487028
9 0.0
10 -0.032580146320299
11 0.065885164298955
12 0.13201498316171
13 -0.000002856279270
14 0.33359656372931
15 0.0
16 -0.000001161194967
17 0.20397613356358
18 0.0
19 -0.000000387934787
20 0.000000795397327
21 0.000001592666231
22 0.000004027480362
23 -0.23661695248779
24 0.0
25 0.000002462626139
26 -0.096205227487246
27 0.0
28 0.032580146320256
29 -0.065885164298959
30 -0.13201498316336
31 -0.000002856279404
32 0.33359656372822
33 0.0
34 -0.000001161195199
35 0.20397613357017
36 0.0
37 0.000002411971226
38 0.000001847251388
39 -0.19975411011958
40 -0.15297667008926
41 -0.000002411971287
42 -0.000001847248848
43 0.19975411011843
44 0.15297667008243
 Sym=     12.1
 Ene=      -0.5017
 Spin= Alpha
 Occup=    2.000000
1 0.032181614287111
2 -0.065886603048799
3 -0.13192345366048
4 0.33358919749154
5 0.000002856793215
6 0.0
7 0.20396967548653
8 0.000001161670924
9 0.0
10 0.000000393880173
11 -0.000000795502124
12 -0.000001593901055
13 -0.23659525042547
14 -0.000004027511286
15 0.0
16 -0.096196771928865
17 -0.000002462551431
18 0.0
19 -0.032181614287042
20 0.065886603049063
21 0.13192345365871
22 0.33358919749159
23 0.000002856788215
24 0.0
25 0.20396967548539
26 0.000001161669680
27 0.0
28 -0.000000393880195
29 0.000000795502435
30 0.000001593902149
31 -0.23659525042025
32 -0.000004027511835
33 0.0
34 -0.096196771928230
35 -0.000002462552183
36 0.0
37 0.19977199920361
38 0.15300280722062
39 0.000002411549695
40 0.000001846872707
41 -0.19977199920352
42 -0.15300280722067
43 -0.000002411549823
44 -0.000001846871909
 Sym=     13.1
 Ene=      -0.4467
 Spin= Alpha
 Occup=    1.896937
1 0.0
2 0.0
3 0.0
4 0.0
5 0.0
6 0.26818353611859
7 0.0
8 0.0
9 0.16970084734363
10 0.0
11 0.0
12 0.0
13 0.0
14 0.0
15 0.26820907588180
16 0.0
17 0.0
18 0.16970977942228
19 0.0
20 0.0
21 0.0
22 0.0
23 0.0
24 0.26818353611845
25 0.0
26 0.0
27 0.16970084734374
28 0.0
29 0.0
30 0.0
31 0.0
32 0.0
33 0.26820907588191
34 0.0
35 0.0
36 0.16970977942253
37 0.0
38 0.0
39 0.0
40 0.0
41 0.0
42 0.0
43 0.0
44 0.0
 Sym=     14.1
 Ene=      -0.0792
 Spin= Alpha
 Occup=    1.000000
1 0.0
2 0.0
3 0.0
4 0.0
5 0.0
6 -0.31631714125679
7 0.0
8 0.0
9 -0.29071793655875
10 0.0
11 0.0
12 0.0
13 0.0
14 0.0
15 0.31633738142735
16 0.0
17 0.0
18 0.29069258503692
19 0.0
20 0.0
21 0.0
22 0.0
23 0.0
24 0.31631714125683
25 0.0
26 0.0
27 0.29071793655912
28 0.0
29 0.0
30 0.0
31 0.0
32 0.0
33 -0.31633738142705
34 0.0
35 0.0
36 -0.29069258503729
37 0.0
38 0.0
39 0.0
40 0.0
41 0.0
42 0.0
43 0.0
44 0.0
 Sym=     15.1
 Ene=      -0.0792
 Spin= Alpha
 Occup=    1.000000
1 0.0
2 0.0
3 0.0
4 0.0
5 0.0
6 0.31631714179548
7 0.0
8 0.0
9 0.29071793680969
10 0.0
11 0.0
12 0.0
13 0.0
14 0.0
15 0.31633738111823
16 0.0
17 0.0
18 0.29069258449871
19 0.0
20 0.0
21 0.0
22 0.0
23 0.0
24 -0.31631714179572
25 0.0
26 0.0
27 -0.29071793680934
28 0.0
29 0.0
30 0.0
31 0.0
32 0.0
33 -0.31633738111803
34 0.0
35 0.0
36 -0.29069258449886
37 0.0
38 0.0
39 0.0
40 0.0
41 0.0
42 0.0
43 0.0
44 0.0
 Sym=     16.1
 Ene=       0.3027
 Spin= Alpha
 Occup=    0.103063
1 0.0
2 0.0
3 0.0
4 0.0
5 0.0
6 0.42696757627247
7 0.0
8 0.0
9 0.35760862476304
10 0.0
11 0.0
12 0.0
13 0.0
14 0.0
15 -0.42699796070932
16 0.0
17 0.0
18 -0.35756788963653
19 0.0
20 0.0
21 0.0
22 0.0
23 0.0
24 0.42696757627242
25 0.0
26 0.0
27 0.35760862476293
28 0.0
29 0.0
30 0.0
31 0.0
32 0.0
33 -0.42699796070942
34 0.0
35 0.0
36 -0.35756788963653
37 0.0
38 0.0
39 0.0
40 0.0
41 0.0
42 0.0
43 0.0
44 0.0
 Sym=     17.1
 Ene=       0.2761
 Spin= Alpha
 Occup=   -0.000000
1 -0.038577722153917
2 0.028716255189275
3 0.83821372127229
4 0.15319105732450
5 -0.000000000008526
6 0.0
7 0.45898673303078
8 -0.000000000050417
9 0.0
10 -0.038684482948910
11 0.029105106989852
12 0.83695908576788
13 0.000000000035672
14 -0.15334878989136
15 0.0
16 0.000000000117230
17 -0.46260287304752
18 0.0
19 -0.038577722154075
20 0.028716255189420
21 0.83821372127549
22 -0.15319105732453
23 0.000000000006812
24 0.0
25 -0.45898673303194
26 0.000000000040605
27 0.0
28 -0.038684482950546
29 0.029105106991873
30 0.83695908579687
31 -0.000000000035539
32 0.15334878989300
33 0.0
34 -0.000000000116105
35 0.46260287306027
36 0.0
37 -0.046521082988282
38 -1.08571790070917
39 -0.046607680416136
40 -1.08914084034960
41 -0.046521082988389
42 -1.08571790071217
43 -0.046607680416131
44 -1.08914084037842
 Sym=     18.1
 Ene=       0.2929
 Spin= Alpha
 Occup=   -0.000000
1 0.058366096694999
2 -0.16716948890822
3 0.60275350171949
4 -0.062924445838027
5 -0.000000000297655
6 0.0
7 -1.67212868847225
8 -0.000000000666879
9 0.0
10 -0.058375321954663
11 0.16712118679465
12 -0.60470413841719
13 -0.000000000292202
14 -0.062589470230139
15 0.0
16 -0.000000000693760
17 -1.67104213951562
18 0.0
19 0.058366096695561
20 -0.16716948890892
21 0.60275350170876
22 0.062924445838791
23 0.000000000294532
24 0.0
25 1.67212868847746
26 0.000000000650739
27 0.0
28 -0.058375321957286
29 0.16712118679805
30 -0.60470413836968
31 0.000000000291430
32 0.062589470233578
33 0.0
34 0.000000000689823
35 1.67104213953779
36 0.0
37 0.031231208546571
38 1.55036110579307
39 -0.031131798268200
40 -1.54786757661934
41 0.031231208546423
42 1.55036110580376
43 -0.031131798267831
44 -1.54786757666796
 Sym=     19.1
 Ene=       0.3082
 Spin= Alpha
 Occup=   -0.000000
1 -0.000000413244935
2 0.000000499461198
3 0.000007722805257
4 0.000000463744365
5 0.13513539673368
6 0.0
7 0.000002358758393
8 0.69923163246609
9 0.0
10 -0.094010496359371
11 0.11328304780099
12 1.75178616887364
13 -0.000000596116906
14 -0.10540765161865
15 0.0
16 -0.000003083727027
17 -0.53595031534263
18 0.0
19 0.000000413245766
20 -0.000000499465738
21 -0.000007722769183
22 0.000000463743332
23 0.13513539673364
24 0.0
25 0.000002358801180
26 0.69923163246608
27 0.0
28 0.094010496356687
29 -0.11328304779486
30 -1.75178616887865
31 -0.000000596116867
32 -0.10540765161360
33 0.0
34 -0.000003083726973
35 -0.53595031528269
36 0.0
37 0.000000108017937
38 -0.000006388540893
39 0.024517020227248
40 -1.45020019901515
41 -0.000000108017755
42 0.000006388568276
43 -0.024517020228769
44 1.45020019894993
 Sym=     20.1
 Ene=       0.3083
 Spin= Alpha
 Occup=   -0.000000
1 -0.093900733448073
2 0.11328913825089
3 1.75227571253916
4 0.10527140362323
5 -0.000000595314036
6 0.0
7 0.53539543458910
8 -0.000003081425570
9 0.0
10 0.000000414833651
11 -0.000000499095161
12 -0.000007720297616
13 -0.13520408771539
14 0.000000464779359
15 0.0
16 -0.69964261615888
17 0.000002362894216
18 0.0
19 0.093900733447512
20 -0.11328913825007
21 -1.75227571253443
22 0.10527140362257
23 -0.000000595315111
24 0.0
25 0.53539543458266
26 -0.000003081426871
27 0.0
28 -0.000000414833219
29 0.000000499094435
30 0.000007720295917
31 -0.13520408771476
32 0.000000464779060
33 0.0
34 -0.69964261616029
35 0.000002362889397
36 0.0
37 0.024533477717651
38 -1.44974217868911
39 -0.000000108163278
40 0.000006392094446
41 -0.024533477717960
42 1.44974217867873
43 0.000000108163261
44 -0.000006392088155
 Sym=     21.1
 Ene=       0.3880
 Spin= Alpha
 Occup=   -0.000000
1 -0.062203136082891
2 0.050489986799618
3 1.14608497913405
4 -0.26341996066562
5 -0.000000345666959
6 0.0
7 -1.68256359007556
8 -0.000004214206212
9 0.0
10 0.000000241519757
11 -0.000000194447883
12 -0.000004418211678
13 -0.089746183212548
14 -0.000001014250856
15 0.0
16 -1.09373591009451
17 -0.000006479109135
18 0.0
19 0.062203136082918
20 -0.050489986799810
21 -1.14608497913360
22 -0.26341996066557
23 -0.000000345667470
24 0.0
25 -1.68256359007453
26 -0.000004214210437
27 0.0
28 -0.000000241519776
29 0.000000194448021
30 0.000004418211008
31 -0.089746183213476
32 -0.000001014250804
33 0.0
34 -1.09373591010053
35 -0.000006479108278
36 0.0
37 0.010262211292159
38 1.34185867408739
39 -0.000000039738630
40 -0.000005164921725
41 -0.010262211292091
42 -1.34185867408633
43 0.000000039738608
44 0.000005164920986
 Sym=     22.1
 Ene=       0.3881
 Spin= Alpha
 Occup=   -0.000000
1 -0.000000239019407
2 0.000000194484153
3 0.000004412931854
4 -0.000001014614278
5 0.089766971433271
6 0.0
7 -0.000006480553760
8 1.09406466225500
9 0.0
10 -0.062588643153011
11 0.050491734108805
12 1.14689374531629
13 -0.000000345682385
14 0.26337139924335
15 0.0
16 -0.000004211914339
17 1.68237187322926
18 0.0
19 0.000000239019076
20 -0.000000194483621
21 -0.000004412932375
22 -0.000001014614139
23 0.089766971433357
24 0.0
25 -0.000006480557988
26 1.09406466225518
27 0.0
28 0.062588643153320
29 -0.050491734109611
30 -1.14689374531770
31 -0.000000345682385
32 0.26337139924286
33 0.0
34 -0.000004211914215
35 1.68237187322417
36 0.0
37 0.000000039401586
38 0.000005168857698
39 0.010284237490080
40 1.34127079115539
41 -0.000000039401601
42 -0.000005168861004
43 -0.010284237489662
44 -1.34127079114802
 Sym=     23.1
 Ene=       0.5047
 Spin= Alpha
 Occup=   -0.000000
1 0.000000000763611
2 0.000000000125139
3 0.000000002960310
4 -0.000000000159295
5 0.25637682155577
6 0.0
7 -0.000000003455637
8 1.77329066834963
9 0.0
10 -0.000000000598002
11 -0.000000000073703
12 -0.000000003065333
13 0.25639520928615
14 -0.000000000147882
15 0.0
16 1.77324741073402
17 -0.000000003438581
18 0.0
19 0.000000000763357
20 0.000000000125556
21 0.000000002964521
22 0.000000000159660
23 -0.25637682155576
24 0.0
25 0.000000003461503
26 -1.77329066834941
27 0.0
28 -0.000000000598001
29 -0.000000000073612
30 -0.000000003065653
31 -0.25639520928580
32 0.000000000147834
33 0.0
34 -1.77324741073046
35 0.000000003438918
36 0.0
37 -0.000000000175937
38 0.000000002060122
39 0.000000000173244
40 -0.000000001984640
41 -0.000000000175634
42 0.000000002063664
43 0.000000000173237
44 -0.000000001984868
 Sym=     24.1
 Ene=       0.7044
 Spin= Alpha
 Occup=   -0.000000
1 -0.000000000886123
2 -0.000000002190291
3 -0.000000003214000
4 -0.000000000009629
5 -0.46952286647159
6 0.0
7 0.000000005413165
8 0.54602412702219
9 0.0
10 -0.000000001018403
11 -0.000000002080669
12 0.000000008422072
13 0.46957070705006
14 0.000000000333129
15 0.0
16 -0.54633212221644
17 0.000000003648132
18 0.0
19 -0.000000000885921
20 -0.000000002189658
21 -0.000000003217272
22 0.000000000009627
23 0.46952286647157
24 0.0
25 -0.000000005414290
26 -0.54602412702214
27 0.0
28 -0.000000001018402
29 -0.000000002080665
30 0.000000008422051
31 -0.46957070705202
32 -0.000000000333196
33 0.0
34 0.54633212221546
35 -0.000000003647942
36 0.0
37 -0.000000000879071
38 -0.000000002252340
39 -0.000000001344918
40 0.000000001402000
41 -0.000000000878650
42 -0.000000002253376
43 -0.000000001344946
44 0.000000001401857
 Sym=     25.1
 Ene=       0.7257
 Spin= Alpha
 Occup=   -0.000000
1 -0.13703892187047
2 0.033634793489829
3 5.66642283725469
4 -0.13324520288125
5 -0.000000000224453
6 0.0
7 -4.37031537150757
8 -0.000000001929491
9 0.0
10 0.13742836293992
11 -0.033057433080290
12 -5.66706878768170
13 0.000000000786614
14 -0.13327962076736
15 0.0
16 -0.000000003072608
17 -4.37009880330918
18 0.0
19 -0.13703892187057
20 0.033634793490440
21 5.66642283725433
22 0.13324520288071
23 0.000000000225876
24 0.0
25 4.37031537150994
26 0.000000001928518
27 0.0
28 0.13742836294008
29 -0.033057433079219
30 -5.66706878768352
31 -0.000000000786193
32 0.13327962076699
33 0.0
34 0.000000003072282
35 4.37009880331056
36 0.0
37 -0.22722041482007
38 1.73629315486621
39 0.22762561895141
40 -1.73631861175925
41 -0.22722041482026
42 1.73629315486729
43 0.22762561895309
44 -1.73631861176046
 Sym=     26.1
 Ene=       0.7444
 Spin= Alpha
 Occup=   -0.000000
1 0.001550666290332
2 -0.58370246469846
3 0.74466072410465
4 -0.071420935367942
5 0.000000001509519
6 0.0
7 0.30758509405125
8 -0.000000001644916
9 0.0
10 0.001656363995525
11 -0.58373997782093
12 0.73874689552296
13 -0.000000001536012
14 0.071358469556232
15 0.0
16 0.000000001813404
17 -0.31237800264112
18 0.0
19 0.001550666290320
20 -0.58370246469857
21 0.74466072410494
22 0.071420935367927
23 -0.000000001512752
24 0.0
25 -0.30758509405115
26 0.000000001645448
27 0.0
28 0.001656363995135
29 -0.58373997782244
30 0.73874689552786
31 0.000000001536102
32 -0.071358469557070
33 0.0
34 -0.000000001813376
35 0.31237800264122
36 0.0
37 -0.39561432720366
38 -0.076311982919603
39 -0.39540657133805
40 -0.078253240214984
41 -0.39561432720379
42 -0.076311982919530
43 -0.39540657134046
44 -0.078253240214884
 Sym=     27.1
 Ene=       0.7969
 Spin= Alpha
 Occup=   -0.000000
1 0.0
2 0.0
3 0.0
4 0.0
5 0.0
6 0.53902115946786
7 0.0
8 0.0
9 -0.39171069283636
10 0.0
11 0.0
12 0.0
13 0.0
14 0.0
15 0.53924693507424
16 0.0
17 0.0
18 -0.39239488468976
19 0.0
20 0.0
21 0.0
22 0.0
23 0.0
24 0.53902115946812
25 0.0
26 0.0
27 -0.39171069283691
28 0.0
29 0.0
30 0.0
31 0.0
32 0.0
33 0.53924693507793
34 0.0
35 0.0
36 -0.39239488469439
37 0.0
38 0.0
39 0.0
40 0.0
41 0.0
42 0.0
43 0.0
44 0.0
 Sym=     28.1
 Ene=       0.8361
 Spin= Alpha
 Occup=   -0.000000
1 0.059502806810162
2 0.24493605552072
3 -0.42007386574643
4 0.17816588864285
5 -0.000000681230887
6 0.0
7 -0.085621229867709
8 0.000000419270938
9 0.0
10 0.000000057001828
11 0.000000239618435
12 -0.000000409952963
13 0.69427980719348
14 -0.000000174658322
15 0.0
16 -0.42657771569088
17 0.000000084034827
18 0.0
19 -0.059502806810135
20 -0.24493605552065
21 0.42007386574499
22 0.17816588864277
23 -0.000000681229689
24 0.0
25 -0.085621229868666
26 0.000000419268541
27 0.0
28 -0.000000057001863
29 -0.000000239618239
30 0.000000409953948
31 0.69427980719272
32 -0.000000174658293
33 0.0
34 -0.42657771569113
35 0.000000084033627
36 0.0
37 0.42776762078817
38 -0.093216902085777
39 0.000000419785670
40 -0.000000092059388
41 -0.42776762078813
42 0.093216902085431
43 -0.000000419785653
44 0.000000092059980
 Sym=     29.1
 Ene=       0.8361
 Spin= Alpha
 Occup=   -0.000000
1 0.000000060319692
2 0.000000241216280
3 -0.000000415165604
4 0.000000174921646
5 0.69423728872624
6 0.0
7 -0.000000083788244
8 -0.42637212010778
9 0.0
10 -0.059789551410971
11 -0.24505037351749
12 0.42049639739840
13 0.000000681014769
14 0.17815497203980
15 0.0
16 -0.000000417389446
17 -0.085670163399424
18 0.0
19 -0.000000060319360
20 -0.000000241219514
21 0.000000415153634
22 0.000000174921817
23 0.69423728872630
24 0.0
25 -0.000000083803341
26 -0.42637212010793
27 0.0
28 0.059789551410591
29 0.24505037351467
30 -0.42049639737808
31 0.000000681014763
32 0.17815497203925
33 0.0
34 -0.000000417389551
35 -0.085670163410969
36 0.0
37 0.000000419629146
38 -0.000000090806647
39 -0.42782163767502
40 0.093127811499141
41 -0.000000419630461
42 0.000000090800518
43 0.42782163767309
44 -0.093127811494691
 Sym=     30.1
 Ene=       0.8419
 Spin= Alpha
 Occup=   -0.000000
1 0.0
2 0.0
3 0.0
4 0.0
5 0.0
6 -0.000000048640223
7 0.0
8 0.0
9 0.000000061032867
10 0.0
11 0.0
12 0.0
13 0.0
14 0.0
15 -0.75073733915519
16 0.0
17 0.0
18 0.94037763946307
19 0.0
20 0.0
21 0.0
22 0.0
23 0.0
24 0.000000048634830
25 0.0
26 0.0
27 -0.000000061023898
28 0.0
29 0.0
30 0.0
31 0.0
32 0.0
33 0.75073733915533
34 0.0
35 0.0
36 -0.94037763946815
37 0.0
38 0.0
39 0.0
40 0.0
41 0.0
42 0.0
43 0.0
44 0.0
 Sym=     31.1
 Ene=       0.8420
 Spin= Alpha
 Occup=   -0.000000
1 0.0
2 0.0
3 0.0
4 0.0
5 0.0
6 -0.75075439521595
7 0.0
8 0.0
9 0.94036196491798
10 0.0
11 0.0
12 0.0
13 0.0
14 0.0
15 0.000000048732916
16 0.0
17 0.0
18 -0.000000060939808
19 0.0
20 0.0
21 0.0
22 0.0
23 0.0
24 0.75075439521612
25 0.0
26 0.0
27 -0.94036196491881
28 0.0
29 0.0
30 0.0
31 0.0
32 0.0
33 -0.000000048733529
34 0.0
35 0.0
36 0.000000060941067
37 0.0
38 0.0
39 0.0
40 0.0
41 0.0
42 0.0
43 0.0
44 0.0
 Sym=     32.1
 Ene=       0.8779
 Spin= Alpha
 Occup=   -0.000000
1 0.0
2 0.0
3 0.0
4 0.0
5 0.0
6 -0.47779477550627
7 0.0
8 0.0
9 1.20010763210722
10 0.0
11 0.0
12 0.0
13 0.0
14 0.0
15 0.47749843378350
16 0.0
17 0.0
18 -1.19989497505455
19 0.0
20 0.0
21 0.0
22 0.0
23 0.0
24 -0.47779477550564
25 0.0
26 0.0
27 1.20010763210641
28 0.0
29 0.0
30 0.0
31 0.0
32 0.0
33 0.47749843377930
34 0.0
35 0.0
36 -1.19989497504890
37 0.0
38 0.0
39 0.0
40 0.0
41 0.0
42 0.0
43 0.0
44 0.0
 Sym=     33.1
 Ene=       1.0301
 Spin= Alpha
 Occup=   -0.000000
1 0.016722959229359
2 0.56270972765186
3 0.25094805146388
4 -0.47964416612048
5 0.000000000033707
6 0.0
7 0.89041305952031
8 -0.000000000501601
9 0.0
10 0.016530534917905
11 0.56261777350383
12 0.25098157060755
13 0.000000000381198
14 0.47975708448850
15 0.0
16 -0.000000000782072
17 -0.89085122491920
18 0.0
19 0.016722959229363
20 0.56270972765168
21 0.25094805146423
22 0.47964416612057
23 -0.000000000033374
24 0.0
25 -0.89041305952143
26 0.000000000501058
27 0.0
28 0.016530534917974
29 0.56261777350364
30 0.25098157060835
31 -0.000000000381160
32 -0.47975708449018
33 0.0
34 0.000000000782198
35 0.89085122492577
36 0.0
37 -0.12684198693650
38 -0.49220149758860
39 -0.12690133947104
40 -0.49244944849254
41 -0.12684198693632
42 -0.49220149758929
43 -0.12690133947074
44 -0.49244944849698
 Sym=     34.1
 Ene=       1.0782
 Spin= Alpha
 Occup=   -0.000000
1 -0.000000001468285
2 -0.000000000775878
3 0.000000003708855
4 -0.000000000925149
5 -0.66076193474807
6 0.0
7 0.000000001397861
8 1.89109247320083
9 0.0
10 0.000000001227918
11 0.000000001084328
12 -0.000000003406671
13 -0.66070760290727
14 -0.000000000562634
15 0.0
16 1.89104193157569
17 0.000000000755205
18 0.0
19 -0.000000001468166
20 -0.000000000771777
21 0.000000003697968
22 0.000000000926398
23 0.66076193474792
24 0.0