[Molden Format]
[Atoms] Angs
C     1    6         0.0000000000       -0.6769380253       -0.7827569236
C     2    6         0.0000000000       -0.6769380253        0.7827569236
C     3    6         0.0000000000        0.6769380253        0.7827569236
C     4    6         0.0000000000        0.6769380253       -0.7827569236
H     5    1         0.0000000000       -1.4379809006       -1.5441628360
H     6    1         0.0000000000       -1.4379809006        1.5441628360
H     7    1         0.0000000000        1.4379809006        1.5441628360
H     8    1         0.0000000000        1.4379809006       -1.5441628360
[GTO]
   1 0
 s    6  1.00
  0.3047524900D+04  0.1834737091D-02
  0.4573695200D+03  0.1403732293D-01
  0.1039486800D+03  0.6884262165D-01
  0.2921015500D+02  0.2321844388D+00
  0.9286663000D+01  0.4679413476D+00
  0.3163927000D+01  0.3623119882D+00
 s    3  1.00
  0.7868272300D+01 -0.1193324245D+00
  0.1881288500D+01 -0.1608541561D+00
  0.5442492600D+00  0.1143456443D+01
 s    1  1.00
  0.1687144800D+00  0.1000000000D+01
 p    3  1.00
  0.7868272300D+01  0.6899906693D-01
  0.1881288500D+01  0.3164239597D+00
  0.5442492600D+00  0.7443082892D+00
 p    1  1.00
  0.1687144800D+00  0.1000000000D+01
  
   2 0
 s    6  1.00
  0.3047524900D+04  0.1834737091D-02
  0.4573695200D+03  0.1403732293D-01
  0.1039486800D+03  0.6884262165D-01
  0.2921015500D+02  0.2321844388D+00
  0.9286663000D+01  0.4679413476D+00
  0.3163927000D+01  0.3623119882D+00
 s    3  1.00
  0.7868272300D+01 -0.1193324245D+00
  0.1881288500D+01 -0.1608541561D+00
  0.5442492600D+00  0.1143456443D+01
 s    1  1.00
  0.1687144800D+00  0.1000000000D+01
 p    3  1.00
  0.7868272300D+01  0.6899906693D-01
  0.1881288500D+01  0.3164239597D+00
  0.5442492600D+00  0.7443082892D+00
 p    1  1.00
  0.1687144800D+00  0.1000000000D+01
  
   3 0
 s    6  1.00
  0.3047524900D+04  0.1834737091D-02
  0.4573695200D+03  0.1403732293D-01
  0.1039486800D+03  0.6884262165D-01
  0.2921015500D+02  0.2321844388D+00
  0.9286663000D+01  0.4679413476D+00
  0.3163927000D+01  0.3623119882D+00
 s    3  1.00
  0.7868272300D+01 -0.1193324245D+00
  0.1881288500D+01 -0.1608541561D+00
  0.5442492600D+00  0.1143456443D+01
 s    1  1.00
  0.1687144800D+00  0.1000000000D+01
 p    3  1.00
  0.7868272300D+01  0.6899906693D-01
  0.1881288500D+01  0.3164239597D+00
  0.5442492600D+00  0.7443082892D+00
 p    1  1.00
  0.1687144800D+00  0.1000000000D+01
  
   4 0
 s    6  1.00
  0.3047524900D+04  0.1834737091D-02
  0.4573695200D+03  0.1403732293D-01
  0.1039486800D+03  0.6884262165D-01
  0.2921015500D+02  0.2321844388D+00
  0.9286663000D+01  0.4679413476D+00
  0.3163927000D+01  0.3623119882D+00
 s    3  1.00
  0.7868272300D+01 -0.1193324245D+00
  0.1881288500D+01 -0.1608541561D+00
  0.5442492600D+00  0.1143456443D+01
 s    1  1.00
  0.1687144800D+00  0.1000000000D+01
 p    3  1.00
  0.7868272300D+01  0.6899906693D-01
  0.1881288500D+01  0.3164239597D+00
  0.5442492600D+00  0.7443082892D+00
 p    1  1.00
  0.1687144800D+00  0.1000000000D+01
  
   5 0
 s    3  1.00
  0.1873113700D+02  0.3349460400D-01
  0.2825394400D+01  0.2347269500D+00
  0.6401216900D+00  0.8137573301D+00
 s    1  1.00
  0.1612777600D+00  0.1000000000D+01
  
   6 0
 s    3  1.00
  0.1873113700D+02  0.3349460400D-01
  0.2825394400D+01  0.2347269500D+00
  0.6401216900D+00  0.8137573301D+00
 s    1  1.00
  0.1612777600D+00  0.1000000000D+01
  
   7 0
 s    3  1.00
  0.1873113700D+02  0.3349460400D-01
  0.2825394400D+01  0.2347269500D+00
  0.6401216900D+00  0.8137573301D+00
 s    1  1.00
  0.1612777600D+00  0.1000000000D+01
  
   8 0
 s    3  1.00
  0.1873113700D+02  0.3349460400D-01
  0.2825394400D+01  0.2347269500D+00
  0.6401216900D+00  0.8137573301D+00
 s    1  1.00
  0.1612777600D+00  0.1000000000D+01


[MO]
 Sym=      1.1
 Ene=     -11.2326
 Spin= Alpha
 Occup=    2.000000
1 0.49795001489799
2 0.011544295765581
3 -0.003072319081571
4 0.0
5 0.000084771560375
6 0.000140555896639
7 0.0
8 -0.000070961196339
9 -0.000035125304071
10 0.49795001490522
11 0.011544295765714
12 -0.003072319081193
13 0.0
14 0.000084771560375
15 -0.000140555896639
16 0.0
17 -0.000070961196117
18 0.000035125303914
19 0.49795001490821
20 0.011544295765826
21 -0.003072319081691
22 0.0
23 -0.000084771560378
24 -0.000140555896642
25 0.0
26 0.000070961196329
27 0.000035125304111
28 0.49795001489196
29 0.011544295765387
30 -0.003072319081010
31 0.0
32 -0.000084771560370
33 0.000140555896631
34 0.0
35 0.000070961196095
36 -0.000035125303861
37 -0.000338052248892
38 0.000907216433386
39 -0.000338052248887
40 0.000907216433470
41 -0.000338052248896
42 0.000907216433404
43 -0.000338052248881
44 0.000907216433460
 Sym=      2.1
 Ene=     -11.2322
 Spin= Alpha
 Occup=    2.000000
1 0.49801122063760
2 0.012183862647594
3 -0.006484145245027
4 0.0
5 0.000156547248046
6 0.000255990057398
7 0.0
8 -0.000192036660036
9 -0.001932088509982
10 -0.49801122061488
11 -0.012183862647044
12 0.006484145244745
13 0.0
14 -0.000156547248038
15 0.000255990057388
16 0.0
17 0.000192036659957
18 -0.001932088509967
19 -0.49801122062166
20 -0.012183862647205
21 0.006484145244758
22 0.0
23 0.000156547248043
24 0.000255990057390
25 0.0
26 -0.000192036659972
27 -0.001932088509921
28 0.49801122062243
29 0.012183862647199
30 -0.006484145244618
31 0.0
32 -0.000156547248037
33 0.000255990057388
34 0.0
35 0.000192036659896
36 -0.001932088509911
37 -0.000202306791474
38 0.000644242549027
39 0.000202306791460
40 -0.000644242548999
41 0.000202306791463
42 -0.000644242549016
43 -0.000202306791466
44 0.000644242549029
 Sym=      3.1
 Ene=     -11.2312
 Spin= Alpha
 Occup=    2.000000
1 0.49821634734147
2 0.012541390912253
3 -0.009279783680878
4 0.0
5 0.000290143115388
6 0.000275291410541
7 0.0
8 -0.003335370775386
9 -0.000505226754777
10 0.49821634734958
11 0.012541390912435
12 -0.009279783680790
13 0.0
14 0.000290143115389
15 -0.000275291410543
16 0.0
17 -0.003335370775298
18 0.000505226754736
19 -0.49821634734013
20 -0.012541390912203
21 0.009279783680664
22 0.0
23 0.000290143115385
24 0.000275291410538
25 0.0
26 -0.003335370775292
27 -0.000505226754695
28 -0.49821634735396
29 -0.012541390912555
30 0.009279783681025
31 0.0
32 0.000290143115391
33 -0.000275291410547
34 0.0
35 -0.003335370775391
36 0.000505226754818
37 -0.000220901679794
38 0.000354106332782
39 -0.000220901679795
40 0.000354106332822
41 0.000220901679793
42 -0.000354106332814
43 0.000220901679800
44 -0.000354106332799
 Sym=      4.1
 Ene=     -11.2308
 Spin= Alpha
 Occup=    2.000000
1 0.49833296473641
2 0.013587439224347
3 -0.023156478258529
4 0.0
5 0.000397427936617
6 0.000378983045823
7 0.0
8 -0.007746918706340
9 -0.006699988520861
10 -0.49833296474377
11 -0.013587439224520
12 0.023156478258605
13 0.0
14 -0.000397427936619
15 0.000378983045826
16 0.0
17 0.007746918706360
18 -0.006699988520866
19 0.49833296474345
20 0.013587439224519
21 -0.023156478258633
22 0.0
23 -0.000397427936620
24 -0.000378983045827
25 0.0
26 0.007746918706360
27 0.006699988520880
28 -0.49833296474510
29 -0.013587439224550
30 0.023156478258608
31 0.0
32 0.000397427936619
33 -0.000378983045826
34 0.0
35 -0.007746918706343
36 0.006699988520878
37 -0.000203817997270
38 -0.001218746964304
39 0.000203817997274
40 0.001218746964297
41 -0.000203817997272
42 -0.001218746964297
43 0.000203817997275
44 0.001218746964291
 Sym=      5.1
 Ene=      -1.1554
 Spin= Alpha
 Occup=    2.000000
1 -0.11017700855097
2 0.21671802942574
3 0.12489432144907
4 0.0
5 0.093613884909296
6 0.065879508246464
7 0.0
8 0.010768800277930
9 0.012070233228540
10 -0.11017700855103
11 0.21671802942589
12 0.12489432144892
13 0.0
14 0.093613884909384
15 -0.065879508246460
16 0.0
17 0.010768800277705
18 -0.012070233228292
19 -0.11017700855096
20 0.21671802942560
21 0.12489432144931
22 0.0
23 -0.093613884909330
24 -0.065879508246434
25 0.0
26 -0.010768800278105
27 -0.012070233228415
28 -0.11017700855094
29 0.21671802942553
30 0.12489432144918
31 0.0
32 -0.093613884909248
33 0.065879508246362
34 0.0
35 -0.010768800277890
36 0.012070233228322
37 0.037618581658501
38 0.005266139434813
39 0.037618581658551
40 0.005266139434585
41 0.037618581658460
42 0.005266139434793
43 0.037618581658439
44 0.005266139434603
 Sym=      6.1
 Ene=      -0.9058
 Spin= Alpha
 Occup=    2.000000
1 -0.10667135724663
2 0.21592181266135
3 0.19212635902078
4 0.0
5 0.094857052077139
6 -0.084855355491883
7 0.0
8 -0.000097261251475
9 -0.021574358355796
10 0.10667135724659
11 -0.21592181266126
12 -0.19212635902055
13 0.0
14 -0.094857052077294
15 -0.084855355491667
16 0.0
17 0.000097261251751
18 -0.021574358356129
19 0.10667135724644
20 -0.21592181266106
21 -0.19212635902136
22 0.0
23 0.094857052076973
24 -0.084855355492010
25 0.0
26 -0.000097261249304
27 -0.021574358353946
28 -0.10667135724652
29 0.21592181266111
30 0.19212635902172
31 0.0
32 -0.094857052077020
33 -0.084855355491806
34 0.0
35 0.000097261249743
36 -0.021574358354344
37 0.083703648949995
38 0.019807797228871
39 -0.083703648950129
40 -0.019807797228975
41 -0.083703648950036
42 -0.019807797231160
43 0.083703648950150
44 0.019807797230613
 Sym=      7.1
 Ene=      -0.8177
 Spin= Alpha
 Occup=    2.000000
1 -0.094918436796055
2 0.19206015248121
3 0.20304897779847
4 0.0
5 -0.11288262592409
6 0.036460585038202
7 0.0
8 -0.027301404410836
9 0.008711811798971
10 -0.094918436796091
11 0.19206015248220
12 0.20304897780009
13 0.0
14 -0.11288262592532
15 -0.036460585038015
16 0.0
17 -0.027301404407416
18 -0.008711811801605
19 0.094918436796150
20 -0.19206015248198
21 -0.20304897780069
22 0.0
23 -0.11288262592488
24 0.036460585037809
25 0.0
26 -0.027301404407652
27 0.008711811801506
28 0.094918436796096
29 -0.19206015248173
30 -0.20304897779784
31 0.0
32 -0.11288262592417
33 -0.036460585038415
34 0.0
35 -0.027301404410341
36 -0.008711811799290
37 0.11180474685174
38 0.048674544264175
39 0.11180474685204
40 0.048674544266053
41 -0.11180474685172
42 -0.048674544265611
43 -0.11180474685157
44 -0.048674544264244
 Sym=      8.1
 Ene=      -0.6917
 Spin= Alpha
 Occup=    2.000000
1 -0.072736003835240
2 0.15327350258745
3 0.021158296419221
4 0.0
5 -0.11535183119675
6 -0.10199414453740
7 0.0
8 -0.12351680643147
9 -0.11900876958935
10 0.072736003835564
11 -0.15327350258732
12 -0.021158296422077
13 0.0
14 0.11535183119959
15 -0.10199414453995
16 0.0
17 0.12351680643500
18 -0.11900876959300
19 -0.072736003835395
20 0.15327350258577
21 0.021158296425484
22 0.0
23 0.11535183119558
24 0.10199414453557
25 0.0
26 0.12351680643633
27 0.11900876959071
28 0.072736003836001
29 -0.15327350258759
30 -0.021158296427741
31 0.0
32 -0.11535183119974
33 0.10199414454008
34 0.0
35 -0.12351680643586
36 0.11900876959006
37 0.16109557213095
38 0.054578492562206
39 -0.16109557213401
40 -0.054578492560650
41 0.16109557213121
42 0.054578492557585
43 -0.16109557213348
44 -0.054578492559415
 Sym=      9.1
 Ene=      -0.6902
 Spin= Alpha
 Occup=    2.000000
1 0.021362758515637
2 -0.042984242385222
3 -0.073907784881862
4 0.0
5 0.16448407198072
6 0.17336445170455
7 0.0
8 0.057907782758325
9 0.062353133914169
10 0.021362758514218
11 -0.042984242382024
12 -0.073907784883587
13 0.0
14 0.16448407197888
15 -0.17336445170228
16 0.0
17 0.057907782754252
18 -0.062353133909542
19 0.021362758515786
20 -0.042984242384712
21 -0.073907784884249
22 0.0
23 -0.16448407198180
24 -0.17336445170396
25 0.0
26 -0.057907782758042
27 -0.062353133912820
28 0.021362758514135
29 -0.042984242381172
30 -0.073907784882941
31 0.0
32 -0.16448407197909
33 0.17336445170227
34 0.0
35 -0.057907782753169
36 0.062353133909734
37 -0.14636162527426
38 -0.085568013128388
39 -0.14636162527134
40 -0.085568013129536
41 -0.14636162527417
42 -0.085568013128873
43 -0.14636162527118
44 -0.085568013130951
 Sym=     10.1
 Ene=      -0.5445
 Spin= Alpha
 Occup=    2.000000
1 -0.018031886071476
2 0.036620933043008
3 0.049117008198522
4 0.0
5 0.28328817822794
6 0.067253728034994
7 0.0
8 0.11798227820214
9 0.047908955113100
10 0.018031886071526
11 -0.036620933042991
12 -0.049117008198697
13 0.0
14 -0.28328817822897
15 0.067253728033270
16 0.0
17 -0.11798227820280
18 0.047908955112817
19 0.018031886071592
20 -0.036620933043178
21 -0.049117008199673
22 0.0
23 0.28328817822919
24 0.067253728033772
25 0.0
26 0.11798227820268
27 0.047908955111559
28 -0.018031886071592
29 0.036620933043382
30 0.049117008199515
31 0.0
32 -0.28328817822792
33 0.067253728035276
34 0.0
35 -0.11798227820225
36 0.047908955112302
37 -0.14600556030156
38 -0.11266963486417
39 0.14600556030162
40 0.11266963486444
41 0.14600556030179
42 0.11266963486590
43 -0.14600556030187
44 -0.11266963486553
 Sym=     11.1
 Ene=      -0.5249
 Spin= Alpha
 Occup=    2.000000
1 -0.000590178243336
2 0.010891704366377
3 -0.021454300743260
4 0.0
5 0.23446378128180
6 -0.21565434752323
7 0.0
8 0.094119792592434
9 -0.10523371667349
10 -0.000590178243256
11 0.010891704366133
12 -0.021454300742947
13 0.0
14 0.23446378128006
15 0.21565434752370
16 0.0
17 0.094119792592175
18 0.10523371667360
19 -0.000590178243283
20 0.010891704366194
21 -0.021454300743162
22 0.0
23 -0.23446378128022
24 0.21565434752268
25 0.0
26 -0.094119792591967
27 0.10523371667301
28 -0.000590178243445
29 0.010891704366588
30 -0.021454300742389
31 0.0
32 -0.23446378128195
33 -0.21565434752221
34 0.0
35 -0.094119792592872
36 -0.10523371667269
37 -0.009785506754487
38 -0.014974822159883
39 -0.009785506753661
40 -0.014974822159056
41 -0.009785506754229
42 -0.014974822159586
43 -0.009785506754976
44 -0.014974822160111
 Sym=     12.1
 Ene=      -0.4499
 Spin= Alpha
 Occup=    2.000000
1 -0.027765591045127
2 0.054184050687832
3 0.14402501946735
4 0.0
5 0.028056336702892
6 0.28009311531527
7 0.0
8 0.053917763843495
9 0.18696951317360
10 -0.027765591045087
11 0.054184050686394
12 0.14402501946565
13 0.0
14 0.028056336704876
15 -0.28009311531554
16 0.0
17 0.053917763839123
18 -0.18696951317000
19 0.027765591045138
20 -0.054184050687406
21 -0.14402501946396
22 0.0
23 0.028056336703857
24 0.28009311531688
25 0.0
26 0.053917763839632
27 0.18696951317093
28 0.027765591045025
29 -0.054184050687190
30 -0.14402501946710
31 0.0
32 0.028056336702475
33 -0.28009311531587
34 0.0
35 0.053917763843079
36 -0.18696951317410
37 -0.13481145772312
38 -0.10513816913655
39 -0.13481145772356
40 -0.10513816913856
41 0.13481145772361
42 0.10513816913715
43 0.13481145772338
44 0.10513816913545
 Sym=     14.1
 Ene=      -0.3433
 Spin= Alpha
 Occup=    1.846154
1 0.0
2 0.0
3 0.0
4 0.025168666415190
5 0.0
6 0.0
7 0.072149456159812
8 0.0
9 0.0
10 0.0
11 0.0
12 0.0
13 -0.40726089802933
14 0.0
15 0.0
16 -0.31112103361909
17 0.0
18 0.0
19 0.0
20 0.0
21 0.0
22 -0.40726089802934
23 0.0
24 0.0
25 -0.31112103361907
26 0.0
27 0.0
28 0.0
29 0.0
30 0.0
31 0.025168666415181
32 0.0
33 0.0
34 0.072149456159816
35 0.0
36 0.0
37 0.0
38 0.0
39 0.0
40 0.0
41 0.0
42 0.0
43 0.0
44 0.0
 Sym=     13.1
 Ene=      -0.3433
 Spin= Alpha
 Occup=    1.846154
1 0.0
2 0.0
3 0.0
4 0.40726089802933
5 0.0
6 0.0
7 0.31112103361909
8 0.0
9 0.0
10 0.0
11 0.0
12 0.0
13 -0.025168666415180
14 0.0
15 0.0
16 -0.072149456159814
17 0.0
18 0.0
19 0.0
20 0.0
21 0.0
22 -0.025168666415166
23 0.0
24 0.0
25 -0.072149456159824
26 0.0
27 0.0
28 0.0
29 0.0
30 0.0
31 0.40726089802936
32 0.0
33 0.0
34 0.31112103361906
35 0.0
36 0.0
37 0.0
38 0.0
39 0.0
40 0.0
41 0.0
42 0.0
43 0.0
44 0.0
 Sym=     16.1
 Ene=       0.2037
 Spin= Alpha
 Occup=    0.153846
1 0.0
2 0.0
3 0.0
4 0.047419047394895
5 0.0
6 0.0
7 0.059930188563405
8 0.0
9 0.0
10 0.0
11 0.0
12 0.0
13 -0.56267615859388
14 0.0
15 0.0
16 -0.43024714979321
17 0.0
18 0.0
19 0.0
20 0.0
21 0.0
22 0.56267615859365
23 0.0
24 0.0
25 0.43024714979343
26 0.0
27 0.0
28 0.0
29 0.0
30 0.0
31 -0.047419047394882
32 0.0
33 0.0
34 -0.059930188563474
35 0.0
36 0.0
37 0.0
38 0.0
39 0.0
40 0.0
41 0.0
42 0.0
43 0.0
44 0.0
 Sym=     15.1
 Ene=       0.2037
 Spin= Alpha
 Occup=    0.153846
1 0.0
2 0.0
3 0.0
4 0.56267615859375
5 0.0
6 0.0
7 0.43024714979334
8 0.0
9 0.0
10 0.0
11 0.0
12 0.0
13 -0.047419047394957
14 0.0
15 0.0
16 -0.059930188563398
17 0.0
18 0.0
19 0.0
20 0.0
21 0.0
22 0.047419047394891
23 0.0
24 0.0
25 0.059930188563469
26 0.0
27 0.0
28 0.0
29 0.0
30 0.0
31 -0.56267615859373
32 0.0
33 0.0
34 -0.43024714979337
35 0.0
36 0.0
37 0.0
38 0.0
39 0.0
40 0.0
41 0.0
42 0.0
43 0.0
44 0.0
 Sym=     17.1
 Ene=       0.2762
 Spin= Alpha
 Occup=    0.000000
1 0.038457716749181
2 -0.028693655480198
3 -0.83645418930797
4 0.0
5 0.10770790202279
6 0.11004881182454
7 0.0
8 0.34486732921641
9 0.30822419792686
10 0.038457716749430
11 -0.028693655480236
12 -0.83645418931498
13 0.0
14 0.10770790202320
15 -0.11004881182410
16 0.0
17 0.34486732921732
18 -0.30822419792477
19 0.038457716749355
20 -0.028693655480361
21 -0.83645418931027
22 0.0
23 -0.10770790202316
24 -0.11004881182361
25 0.0
26 -0.34486732921744
27 -0.30822419792358
28 0.038457716748953
29 -0.028693655479606
30 -0.83645418930765
31 0.0
32 -0.10770790202244
33 0.11004881182379
34 0.0
35 -0.34486732921392
36 0.30822419792351
37 0.046341229559578
38 1.08565400091575
39 0.046341229559692
40 1.08565400091869
41 0.046341229559641
42 1.08565400091528
43 0.046341229560037
44 1.08565400091191
 Sym=     18.1
 Ene=       0.2812
 Spin= Alpha
 Occup=    0.000000
1 -0.075077567305216
2 0.093410676677181
3 1.15534156176404
4 0.0
5 -0.10759434168254
6 0.11205171169945
7 0.0
8 -0.47587125516378
9 0.36125893446309
10 0.075077567305132
11 -0.093410676677188
12 -1.15534156176285
13 0.0
14 0.10759434168179
15 0.11205171170007
16 0.0
17 0.47587125516273
18 0.36125893446315
19 0.075077567304222
20 -0.093410676675028
21 -1.15534156176531
22 0.0
23 -0.10759434168067
24 0.11205171170027
25 0.0
26 -0.47587125515019
27 0.36125893447410
28 -0.075077567304518
29 0.093410676675256
30 1.15534156177130
31 0.0
32 0.10759434168143
33 0.11205171169959
34 0.0
35 0.47587125515203
36 0.36125893447130
37 0.009065861711242
38 -0.65922831473078
39 -0.009065861711136
40 0.65922831472930
41 -0.009065861711212
42 0.65922831471252
43 0.009065861711026
44 -0.65922831471956
 Sym=     19.1
 Ene=       0.2895
 Spin= Alpha
 Occup=    0.000000
1 0.059969511010986
2 -0.16695849268139
3 0.56181062736329
4 0.0
5 0.071868191140998
6 0.009409270290801
7 0.0
8 1.22175642240502
9 1.05257065244013
10 -0.059969511011116
11 0.16695849268150
12 -0.56181062736045
13 0.0
14 -0.071868191141244
15 0.009409270291134
16 0.0
17 -1.22175642240526
18 1.05257065244166
19 0.059969511011937
20 -0.16695849268247
21 0.56181062734917
22 0.0
23 -0.071868191141857
24 -0.009409270289340
25 0.0
26 -1.22175642240879
27 -1.05257065243531
28 -0.059969511011851
29 0.16695849268261
30 -0.56181062735216
31 0.0
32 0.071868191142214
33 -0.009409270289706
34 0.0
35 1.22175642240870
36 -1.05257065243387
37 0.034688332289445
38 1.51373081091681
39 -0.034688332289265
40 -1.51373081091925
41 0.034688332289186
42 1.51373081092244
43 -0.034688332288786
44 -1.51373081091929
 Sym=     20.1
 Ene=       0.3207
 Spin= Alpha
 Occup=    0.000000
1 0.061064387151755
2 -0.068364269821460
3 -1.23691850475780
4 0.0
5 0.026598751672824
6 0.12081133446980
7 0.0
8 0.038691199320056
9 0.66920131738542
10 0.061064387151501
11 -0.068364269821196
12 -1.23691850475363
13 0.0
14 0.026598751672533
15 -0.12081133447014
16 0.0
17 0.038691199317841
18 -0.66920131738567
19 -0.061064387151767
20 0.068364269821350
21 1.23691850475877
22 0.0
23 0.026598751673079
24 0.12081133447050
25 0.0
26 0.038691199320171
27 0.66920131738600
28 -0.061064387151739
29 0.068364269821331
30 1.23691850475792
31 0.0
32 0.026598751672904
33 -0.12081133447057
34 0.0
35 0.038691199320220
36 -0.66920131738691
37 -0.024311627257285
38 1.14615180875730
39 -0.024311627257535
40 1.14615180875310
41 0.024311627257449
42 -1.14615180875787
43 0.024311627257213
44 -1.14615180875861
 Sym=     21.1
 Ene=       0.3470
 Spin= Alpha
 Occup=    0.000000
1 -0.017886684145418
2 0.011033198048943
3 0.007499073700357
4 0.0
5 0.10472086577665
6 0.19712495389700
7 0.0
8 0.42520398805767
9 1.02425386963328
10 0.017886684145384
11 -0.011033198048940
12 -0.007499073699823
13 0.0
14 -0.10472086577670
15 0.19712495389695
16 0.0
17 -0.42520398805714
18 1.02425386963345
19 0.017886684145215
20 -0.011033198048329
21 -0.007499073703868
22 0.0
23 0.10472086577702
24 0.19712495389690
25 0.0
26 0.42520398806252
27 1.02425386963666
28 -0.017886684145170
29 0.011033198048234
30 0.007499073702878
31 0.0
32 -0.10472086577698
33 0.19712495389703
34 0.0
35 -0.42520398806222
36 1.02425386963695
37 0.000475327195683
38 1.16977855224071
39 -0.000475327195578
40 -1.16977855224034
41 -0.000475327195663
42 -1.16977855224496
43 0.000475327195635
44 1.16977855224547
 Sym=     22.1
 Ene=       0.4266
 Spin= Alpha
 Occup=    0.000000
1 -0.051592591460940
2 0.035775842797060
3 1.48226567370238
4 0.0
5 0.12611983245769
6 0.090907835536785
7 0.0
8 1.70988031543832
9 0.28114290894473
10 -0.051592591460900
11 0.035775842797287
12 1.48226567369822
13 0.0
14 0.12611983245796
15 -0.090907835536788
16 0.0
17 1.70988031543650
18 -0.28114290894155
19 0.051592591460867
20 -0.035775842797070
21 -1.48226567369801
22 0.0
23 0.12611983245825
24 0.090907835536597
25 0.0
26 1.70988031543606
27 0.28114290894121
28 0.051592591460938
29 -0.035775842796797
30 -1.48226567370278
31 0.0
32 0.12611983245807
33 -0.090907835536733
34 0.0
35 1.70988031543800
36 -0.28114290894532
37 0.012997590624608
38 0.87577596163794
39 0.012997590624555
40 0.87577596163666
41 -0.012997590624463
42 -0.87577596163685
43 -0.012997590624483
44 -0.87577596163858
 Sym=     23.1
 Ene=       0.4930
 Spin= Alpha
 Occup=    0.000000
1 -0.015912541852272
2 0.008835525721062
3 0.15538100401341
4 0.0
5 -0.13947155110133
6 0.22124603092354
7 0.0
8 -0.77104219229355
9 1.56521595249342
10 0.015912541852332
11 -0.008835525721158
12 -0.15538100401482
13 0.0
14 0.13947155110117
15 0.22124603092368
16 0.0
17 0.77104219229229
18 1.56521595249346
19 -0.015912541852369
20 0.008835525721348
21 0.15538100401526
22 0.0
23 0.13947155110117
24 -0.22124603092365
25 0.0
26 0.77104219229216
27 -1.56521595249449
28 0.015912541852319
29 -0.008835525721083
30 -0.15538100401415
31 0.0
32 -0.13947155110133
33 -0.22124603092352
34 0.0
35 -0.77104219229348
36 -1.56521595249434
37 -0.045507231530026
38 0.38711127775504
39 0.045507231530022
40 -0.38711127775531
41 -0.045507231529817
42 0.38711127775561
43 0.045507231529850
44 -0.38711127775522
 Sym=     24.1
 Ene=       0.6897
 Spin= Alpha
 Occup=    0.000000
1 -0.007896438242589
2 -0.13245008467210
3 -0.012731046464510
4 0.0
5 -0.37629614938074
6 0.25031839857882
7 0.0
8 0.51876599647651
9 -0.24359411026946
10 -0.007896438242763
11 -0.13245008467238
12 -0.012731046457880
13 0.0
14 -0.37629614938096
15 -0.25031839857941
16 0.0
17 0.51876599648056
18 0.24359411026723
19 -0.007896438242726
20 -0.13245008467249
21 -0.012731046462051
22 0.0
23 0.37629614938053
24 -0.25031839857919
25 0.0
26 -0.51876599647774
27 0.24359411026981
28 -0.007896438242804
29 -0.13245008467228
30 -0.012731046456312
31 0.0
32 0.37629614938032
33 0.25031839857875
34 0.0
35 -0.51876599648158
36 -0.24359411026689
37 0.025234088219600
38 0.056657200135767
39 0.025234088219174
40 0.056657200137345
41 0.025234088219149
42 0.056657200135885
43 0.025234088219250
44 0.056657200137681
 Sym=     25.1
 Ene=       0.7223
 Spin= Alpha
 Occup=    0.000000
1 -0.13135194707022
2 0.030129341489279
3 5.68803797770814
4 0.0
5 0.065850024802460
6 0.11398999747051
7 0.0
8 3.64136714677302
9 2.37358861488605
10 0.13135194707022
11 -0.030129341487822
12 -5.68803797771000
13 0.0
14 -0.065850024803305
15 0.11398999747026
16 0.0
17 -3.64136714677152
18 2.37358861488554
19 -0.13135194707024
20 0.030129341489325
21 5.68803797770865
22 0.0
23 -0.065850024802732
24 -0.11398999746996
25 0.0
26 -3.64136714677248
27 -2.37358861488664
28 0.13135194707021
29 -0.030129341486977
30 -5.68803797771186
31 0.0
32 0.065850024803005
33 -0.11398999747012
34 0.0
35 3.64136714677146
36 -2.37358861488613
37 -0.21112026866908
38 1.67274339536020
39 0.21112026867024
40 -1.67274339535989
41 -0.21112026866872
42 1.67274339535993
43 0.21112026867001
44 -1.67274339535968
 Sym=     26.1
 Ene=       0.7464
 Spin= Alpha
 Occup=    0.000000
1 0.002283547843129
2 -0.57757191138074
3 0.74661997781944
4 0.0
5 0.065705611347948
6 0.043636154850691
7 0.0
8 -0.23165254215589
9 -0.22427925450454
10 0.002283547843422
11 -0.57757191138177
12 0.74661997780374
13 0.0
14 0.065705611346935
15 -0.043636154851626
16 0.0
17 -0.23165254216621
18 0.22427925451262
19 0.002283547843091
20 -0.57757191138116
21 0.74661997781816
22 0.0
23 -0.065705611346614
24 -0.043636154852320
25 0.0
26 0.23165254215597
27 0.22427925450574
28 0.002283547843624
29 -0.57757191138093
30 0.74661997780134
31 0.0
32 -0.065705611347243
33 0.043636154850356
34 0.0
35 0.23165254216759
36 -0.22427925451118
37 -0.39663356433328
38 -0.084925574385235
39 -0.39663356433340
40 -0.084925574390485
41 -0.39663356433385
42 -0.084925574385346
43 -0.39663356433220
44 -0.084925574390596
 Sym=     27.1
 Ene=       0.7772
 Spin= Alpha
 Occup=    0.000000
1 0.033318149135632
2 0.17077144288168
3 -0.066935013769298
4 0.0
5 0.25707412512129
6 -0.41223763937455
7 0.0
8 -0.26331540930809
9 0.39665647506071
10 -0.033318149135616
11 -0.17077144287964
12 0.066935013767013
13 0.0
14 -0.25707412512103
15 -0.41223763937433
16 0.0
17 0.26331540930833
18 0.39665647505974
19 -0.033318149135688
20 -0.17077144287976
21 0.066935013772037
22 0.0
23 0.25707412512094
24 -0.41223763937422
25 0.0
26 -0.26331540931071
27 0.39665647505634
28 0.033318149135700
29 0.17077144288183
30 -0.066935013774489
31 0.0
32 -0.25707412512122
33 -0.41223763937458
34 0.0
35 0.26331540931068
36 0.39665647505721
37 0.26628604592071
38 -0.054682645920808
39 -0.26628604591945
40 0.054682645920863
41 -0.26628604591955
42 0.054682645922300
43 0.26628604592094
44 -0.054682645922327
 Sym=     28.1
 Ene=       0.7909
 Spin= Alpha
 Occup=    0.000000
1 0.0
2 0.0
3 0.0
4 0.53621196106160
5 0.0
6 0.0
7 -0.39278513671801
8 0.0
9 0.0
10 0.0
11 0.0
12 0.0
13 0.53621196106304
14 0.0
15 0.0
16 -0.39278513672047
17 0.0
18 0.0
19 0.0
20 0.0
21 0.0
22 0.53621196106096
23 0.0
24 0.0
25 -0.39278513671678
26 0.0
27 0.0
28 0.0
29 0.0
30 0.0
31 0.53621196106026
32 0.0
33 0.0
34 -0.39278513671671
35 0.0
36 0.0
37 0.0
38 0.0
39 0.0
40 0.0
41 0.0
42 0.0
43 0.0
44 0.0
 Sym=     29.1
 Ene=       0.8266
 Spin= Alpha
 Occup=    0.000000
1 0.0
2 0.0
3 0.0
4 -0.52796550696096
5 0.0
6 0.0
7 0.63202598599112
8 0.0
9 0.0
10 0.0
11 0.0
12 0.0
13 0.52796550696267
14 0.0
15 0.0
16 -0.63202598599435
17 0.0
18 0.0
19 0.0
20 0.0
21 0.0
22 0.52796550695845
23 0.0
24 0.0
25 -0.63202598598640
26 0.0
27 0.0
28 0.0
29 0.0
30 0.0
31 -0.52796550696231
32 0.0
33 0.0
34 0.63202598599121
35 0.0
36 0.0
37 0.0
38 0.0
39 0.0
40 0.0
41 0.0
42 0.0
43 0.0
44 0.0
 Sym=     30.1
 Ene=       0.8387
 Spin= Alpha
 Occup=    0.000000
1 0.0
2 0.0
3 0.0
4 -0.50934213303834
5 0.0
6 0.0
7 0.71919862342115
8 0.0
9 0.0
10 0.0
11 0.0
12 0.0
13 -0.50934213303616
14 0.0
15 0.0
16 0.71919862341963
17 0.0
18 0.0
19 0.0
20 0.0
21 0.0
22 0.50934213304092
23 0.0
24 0.0
25 -0.71919862342449
26 0.0
27 0.0
28 0.0
29 0.0
30 0.0
31 0.50934213303724
32 0.0
33 0.0
34 -0.71919862341901
35 0.0
36 0.0
37 0.0
38 0.0
39 0.0
40 0.0
41 0.0
42 0.0
43 0.0
44 0.0
 Sym=     31.1
 Ene=       0.8770
 Spin= Alpha
 Occup=    0.000000
1 0.0
2 0.0
3 0.0
4 -0.47536955904209
5 0.0
6 0.0
7 1.19886040093441
8 0.0
9 0.0
10 0.0
11 0.0
12 0.0
13 0.47536955904075
14 0.0
15 0.0
16 -1.19886040093287
17 0.0
18 0.0
19 0.0
20 0.0
21 0.0
22 -0.47536955904295
23 0.0
24 0.0
25 1.19886040093527
26 0.0
27 0.0
28 0.0
29 0.0
30 0.0
31 0.47536955904328
32 0.0
33 0.0
34 -1.19886040093607
35 0.0
36 0.0
37 0.0
38 0.0
39 0.0
40 0.0
41 0.0
42 0.0
43 0.0
44 0.0
 Sym=     32.1
 Ene=       0.9042
 Spin= Alpha
 Occup=    0.000000
1 -0.047288407252096
2 -0.19790451074413
3 0.67319321172656
4 0.0
5 0.43959561276116
6 -0.26239606462985
7 0.0
8 -0.055933130382515
9 0.080943525172976
10 -0.047288407252064
11 -0.19790451074409
12 0.67319321172359
13 0.0
14 0.43959561276126
15 0.26239606462978
16 0.0
17 -0.055933130384675
18 -0.080943525171344
19 0.047288407252061
20 0.19790451074420
21 -0.67319321172415
22 0.0
23 0.43959561276159
24 -0.26239606462976
25 0.0
26 -0.055933130385325
27 0.080943525171055
28 0.047288407252094
29 0.19790451074447
30 -0.67319321172766
31 0.0
32 0.43959561276154
33 0.26239606462989
34 0.0
35 -0.055933130383487
36 -0.080943525172656
37 -0.34131470078748
38 0.075436941375441
39 -0.34131470078753
40 0.075436941374489
41 0.34131470078790
42 -0.075436941374327
43 0.34131470078796
44 -0.075436941375071
 Sym=     33.1
 Ene=       1.0499
 Spin= Alpha
 Occup=    0.000000
1 0.044354319408576
2 0.44367621383230
3 -0.99903321040990
4 0.0
5 0.28528712750157
6 0.43085074502412
7 0.0
8 -0.95798654582557
9 -1.65715878586811
10 -0.044354319408630
11 -0.44367621383409
12 0.99903321040959
13 0.0
14 -0.28528712750241
15 0.43085074502553
16 0.0
17 0.95798654582743
18 -1.65715878587005
19 -0.044354319408599
20 -0.44367621383397
21 0.99903321040812
22 0.0
23 0.28528712750307
24 0.43085074502426
25 0.0
26 -0.95798654582870
27 -1.65715878586625
28 0.044354319408554
29 0.44367621383256
30 -0.99903321040943
31 0.0
32 -0.28528712750248
33 0.43085074502297
34 0.0
35 0.95798654582718
36 -1.65715878586405
37 0.32528292927537
38 -1.16289020234657
39 -0.32528292927504
40 1.16289020234812
41 -0.32528292927447
42 1.16289020234705
43 0.32528292927470
44 -1.16289020234543
 Sym=     34.1
 Ene=       1.0605
 Spin= Alpha
 Occup=    0.000000
1 -0.012266556502643
2 -0.54090413777831
3 -0.24946856687741
4 0.0
5 -0.21091176282892
6 -0.45486129441144
7 0.0
8 0.54317102183618
9 0.67342637395243
10 -0.012266556502506
11 -0.54090413777651
12 -0.24946856687987
13 0.0
14 -0.21091176282853
15 0.45486129441050
16 0.0
17 0.54317102183526
18 -0.67342637394945
19 -0.012266556502512
20 -0.54090413777663
21 -0.24946856688146
22 0.0
23 0.21091176282801
24 0.45486129440988
25 0.0
26 -0.54317102183290
27 -0.67342637394644
28 -0.012266556502631
29 -0.54090413777827
30 -0.24946856687585
31 0.0
32 0.21091176282869
33 -0.45486129441153
34 0.0