[Molden Format]
[Atoms] Angs
C     1    6         1.0248323754        0.0000000000        0.0000000000
C     2    6         0.0000000000       -1.0248323754        0.0000000000
C     3    6        -1.0248323754        0.0000000000        0.0000000000
C     4    6         0.0000000000        1.0248323754        0.0000000000
H     5    1         2.1005277359        0.0000000000        0.0000000000
H     6    1         0.0000000000       -2.1005277359        0.0000000000
H     7    1        -2.1005277359        0.0000000000        0.0000000000
H     8    1         0.0000000000        2.1005277359        0.0000000000
[GTO]
   1 0
 s    6  1.00
  0.3047524900D+04  0.1834737091D-02
  0.4573695200D+03  0.1403732293D-01
  0.1039486800D+03  0.6884262165D-01
  0.2921015500D+02  0.2321844388D+00
  0.9286663000D+01  0.4679413476D+00
  0.3163927000D+01  0.3623119882D+00
 s    3  1.00
  0.7868272300D+01 -0.1193324245D+00
  0.1881288500D+01 -0.1608541561D+00
  0.5442492600D+00  0.1143456443D+01
 s    1  1.00
  0.1687144800D+00  0.1000000000D+01
 p    3  1.00
  0.7868272300D+01  0.6899906693D-01
  0.1881288500D+01  0.3164239597D+00
  0.5442492600D+00  0.7443082892D+00
 p    1  1.00
  0.1687144800D+00  0.1000000000D+01
  
   2 0
 s    6  1.00
  0.3047524900D+04  0.1834737091D-02
  0.4573695200D+03  0.1403732293D-01
  0.1039486800D+03  0.6884262165D-01
  0.2921015500D+02  0.2321844388D+00
  0.9286663000D+01  0.4679413476D+00
  0.3163927000D+01  0.3623119882D+00
 s    3  1.00
  0.7868272300D+01 -0.1193324245D+00
  0.1881288500D+01 -0.1608541561D+00
  0.5442492600D+00  0.1143456443D+01
 s    1  1.00
  0.1687144800D+00  0.1000000000D+01
 p    3  1.00
  0.7868272300D+01  0.6899906693D-01
  0.1881288500D+01  0.3164239597D+00
  0.5442492600D+00  0.7443082892D+00
 p    1  1.00
  0.1687144800D+00  0.1000000000D+01
  
   3 0
 s    6  1.00
  0.3047524900D+04  0.1834737091D-02
  0.4573695200D+03  0.1403732293D-01
  0.1039486800D+03  0.6884262165D-01
  0.2921015500D+02  0.2321844388D+00
  0.9286663000D+01  0.4679413476D+00
  0.3163927000D+01  0.3623119882D+00
 s    3  1.00
  0.7868272300D+01 -0.1193324245D+00
  0.1881288500D+01 -0.1608541561D+00
  0.5442492600D+00  0.1143456443D+01
 s    1  1.00
  0.1687144800D+00  0.1000000000D+01
 p    3  1.00
  0.7868272300D+01  0.6899906693D-01
  0.1881288500D+01  0.3164239597D+00
  0.5442492600D+00  0.7443082892D+00
 p    1  1.00
  0.1687144800D+00  0.1000000000D+01
  
   4 0
 s    6  1.00
  0.3047524900D+04  0.1834737091D-02
  0.4573695200D+03  0.1403732293D-01
  0.1039486800D+03  0.6884262165D-01
  0.2921015500D+02  0.2321844388D+00
  0.9286663000D+01  0.4679413476D+00
  0.3163927000D+01  0.3623119882D+00
 s    3  1.00
  0.7868272300D+01 -0.1193324245D+00
  0.1881288500D+01 -0.1608541561D+00
  0.5442492600D+00  0.1143456443D+01
 s    1  1.00
  0.1687144800D+00  0.1000000000D+01
 p    3  1.00
  0.7868272300D+01  0.6899906693D-01
  0.1881288500D+01  0.3164239597D+00
  0.5442492600D+00  0.7443082892D+00
 p    1  1.00
  0.1687144800D+00  0.1000000000D+01
  
   5 0
 s    3  1.00
  0.1873113700D+02  0.3349460400D-01
  0.2825394400D+01  0.2347269500D+00
  0.6401216900D+00  0.8137573301D+00
 s    1  1.00
  0.1612777600D+00  0.1000000000D+01
  
   6 0
 s    3  1.00
  0.1873113700D+02  0.3349460400D-01
  0.2825394400D+01  0.2347269500D+00
  0.6401216900D+00  0.8137573301D+00
 s    1  1.00
  0.1612777600D+00  0.1000000000D+01
  
   7 0
 s    3  1.00
  0.1873113700D+02  0.3349460400D-01
  0.2825394400D+01  0.2347269500D+00
  0.6401216900D+00  0.8137573301D+00
 s    1  1.00
  0.1612777600D+00  0.1000000000D+01
  
   8 0
 s    3  1.00
  0.1873113700D+02  0.3349460400D-01
  0.2825394400D+01  0.2347269500D+00
  0.6401216900D+00  0.8137573301D+00
 s    1  1.00
  0.1612777600D+00  0.1000000000D+01


[MO]
 Sym=      1.1
 Ene=     -11.3213
 Spin= Alpha
 Occup=    2.000000
1 0.70454382010892
2 0.017532004087122
3 -0.019411379688074
4 -0.000141480844838
5 0.000000000976062
6 0.000000000000000
7 0.007544755925685
8 -0.000000000831265
9 -0.000000000000000
10 0.004130913121662
11 -0.001395569941293
12 0.014858024175528
13 0.000000000182291
14 -0.000227030727516
15 -0.000000000000000
16 -0.000000000362832
17 0.007711005262212
18 0.000000000000000
19 0.70454381962945
20 0.017532004075364
21 -0.019411379680409
22 0.000141480844722
23 -0.000000000976062
24 -0.000000000000000
25 -0.007544755923841
26 0.000000000831266
27 -0.000000000000000
28 0.004130913121661
29 -0.001395569941292
30 0.014858024175526
31 -0.000000000182309
32 0.000227030727515
33 -0.000000000000000
34 0.000000000364428
35 -0.007711005262207
36 0.000000000000000
37 -0.000383766079232
38 -0.000184397572822
39 -0.000083428420152
40 0.001673570916596
41 -0.000383766079047
42 -0.000184397573430
43 -0.000083428420152
44 0.001673570916593
 Sym=      2.1
 Ene=     -11.3213
 Spin= Alpha
 Occup=    2.000000
1 0.70452167073394
2 0.017280427847569
3 -0.011275452965459
4 -0.000171830365058
5 0.000000001139455
6 0.000000000000000
7 0.002722848508618
8 -0.000000000266122
9 -0.000000000000000
10 0.000000002430891
11 -0.000000000205074
12 0.000000001148724
13 -0.000025415303014
14 0.000000000019478
15 -0.000000000000000
16 0.002350570118130
17 0.000000001793816
18 0.000000000000000
19 -0.70452167121342
20 -0.017280427859499
21 0.011275452978671
22 -0.000171830365154
23 0.000000001139454
24 -0.000000000000000
25 0.002722848513753
26 -0.000000000266120
27 0.000000000000000
28 -0.000000002433691
29 0.000000000206024
30 -0.000000001158836
31 -0.000025415303014
32 0.000000000019323
33 -0.000000000000000
34 0.002350570118131
35 0.000000001799067
36 -0.000000000000000
37 -0.000272080529489
38 0.000885217306474
39 0.000000000137529
40 0.000000000714494
41 0.000272080529751
42 -0.000885217306348
43 -0.000000000137473
44 -0.000000000715635
 Sym=      3.1
 Ene=     -11.1852
 Spin= Alpha
 Occup=    2.000000
1 -0.000000002667143
2 -0.000000000325550
3 0.000000001173121
4 0.000000000015966
5 0.000172460305895
6 -0.000000000000000
7 -0.000000001518886
8 -0.002173713215197
9 -0.000000000000000
10 0.70437120815537
11 0.017671198844382
12 -0.010645025578099
13 -0.000000000893420
14 0.000868386024789
15 0.000000000000000
16 0.000000000138350
17 -0.003315382638301
18 0.000000000000000
19 0.000000002667344
20 0.000000000325621
21 -0.000000001173737
22 0.000000000015986
23 0.000172460305896
24 0.000000000000000
25 -0.000000001519200
26 -0.002173713215197
27 -0.000000000000000
28 -0.70437120818614
29 -0.017671198845170
30 0.010645025578894
31 -0.000000000893421
32 0.000868386024829
33 0.000000000000000
34 0.000000000138351
35 -0.003315382638630
36 0.000000000000000
37 0.000000000106307
38 0.000000000579005
39 -0.000320871847071
40 0.000434215519579
41 -0.000000000106302
42 -0.000000000579072
43 0.000320871847088
44 -0.000434215519560
 Sym=      4.1
 Ene=     -11.1852
 Spin= Alpha
 Occup=    2.000000
1 0.004601848019231
2 0.001626733886760
3 -0.013877180621496
4 -0.000440803268846
5 0.000000000112035
6 -0.000000000000000
7 0.007012178659261
8 -0.000000000283976
9 0.000000000000000
10 -0.70439597301748
11 -0.017975694460206
12 0.017989648233632
13 0.000000000756597
14 -0.000901890142448
15 0.000000000000000
16 -0.000000000639544
17 0.007312583078390
18 -0.000000000000000
19 0.004601848019219
20 0.001626733886759
21 -0.013877180621492
22 0.000440803268846
23 -0.000000000112042
24 -0.000000000000000
25 -0.007012178659260
26 0.000000000284070
27 0.000000000000000
28 -0.70439597298671
29 -0.017975694459435
30 0.017989648233169
31 -0.000000000756597
32 0.000901890142410
33 0.000000000000000
34 0.000000000639546
35 -0.007312583078248
36 -0.000000000000000
37 0.000117317890417
38 -0.001461708794430
39 0.000366972729152
40 0.000343999557468
41 0.000117317890416
42 -0.001461708794429
43 0.000366972729138
44 0.000343999557488
 Sym=      5.1
 Ene=      -1.1749
 Spin= Alpha
 Occup=    2.000000
1 -0.11414017353119
2 0.23869282765037
3 0.12026141563003
4 -0.11593913354411
5 0.000000025193603
6 -0.000000000000000
7 -0.007834628307494
8 0.000000004515391
9 -0.000000000000000
10 -0.10413725365435
11 0.19747832107099
12 0.12337600290438
13 -0.000000025195983
14 0.11355595360890
15 -0.000000000000000
16 -0.000000001977312
17 0.025583807251828
18 0.000000000000000
19 -0.11414017353118
20 0.23869282765035
21 0.12026141563008
22 0.11593913354411
23 -0.000000025193602
24 -0.000000000000000
25 0.007834628307543
26 -0.000000004515393
27 -0.000000000000000
28 -0.10413725365435
29 0.19747832107099
30 0.12337600290438
31 0.000000025195990
32 -0.11355595360891
33 -0.000000000000000
34 0.000000001977340
35 -0.025583807251802
36 0.000000000000000
37 0.042358570988268
38 0.002941168471000
39 0.031815793735923
40 0.007466164619110
41 0.042358570988269
42 0.002941168471015
43 0.031815793735925
44 0.007466164619088
 Sym=      6.1
 Ene=      -0.8984
 Spin= Alpha
 Occup=    2.000000
1 -0.14254314684059
2 0.31153742094174
3 0.26896300583994
4 0.052543766222723
5 0.000000060418991
6 -0.000000000000000
7 0.042839627177297
8 0.000000050936769
9 -0.000000000000000
10 0.000000014214478
11 -0.000000054269111
12 0.000000067019163
13 0.14226432575961
14 -0.000000008916931
15 0.000000000000000
16 0.017359040248574
17 0.000000046546801
18 0.000000000000000
19 0.14254314684059
20 -0.31153742094176
21 -0.26896300583965
22 0.052543766222704
23 0.000000060418989
24 -0.000000000000000
25 0.042839627177495
26 0.000000050936761
27 -0.000000000000000
28 -0.000000014214470
29 0.000000054269133
30 -0.000000067019478
31 0.14226432575961
32 -0.000000008916929
33 0.000000000000000
34 0.017359040248566
35 0.000000046546993
36 0.000000000000000
37 0.15018524068252
38 0.039076747008142
39 -0.000000010018224
40 0.000000011090345
41 -0.15018524068250
42 -0.039076747008072
43 0.000000010018215
44 -0.000000011090388
 Sym=      7.1
 Ene=      -0.8469
 Spin= Alpha
 Occup=    2.000000
1 -0.000000022133565
2 0.000000020648262
3 0.000000138958829
4 0.000000020141144
5 -0.20205749190310
6 -0.000000000000000
7 -0.000000040220238
8 -0.041908226194867
9 -0.000000000000000
10 -0.14167237584706
11 0.27253904262750
12 0.28867136250942
13 -0.000000019335529
14 -0.011363827351782
15 0.000000000000000
16 -0.000000044917874
17 0.006910314830529
18 0.000000000000000
19 0.000000022133561
20 -0.000000020648277
21 -0.000000138958493
22 0.000000020141142
23 -0.20205749190309
24 0.000000000000000
25 -0.000000040219962
26 -0.041908226194889
27 0.000000000000000
28 0.14167237584707
29 -0.27253904262748
30 -0.28867136250977
31 -0.000000019335535
32 -0.011363827351791
33 -0.000000000000000
34 -0.000000044917902
35 0.006910314830795
36 -0.000000000000001
37 0.000000027547553
38 0.000000023726637
39 0.12186951359519
40 0.050799530647073
41 -0.000000027547545
42 -0.000000023726530
43 -0.12186951359520
44 -0.050799530647165
 Sym=      8.1
 Ene=      -0.7479
 Spin= Alpha
 Occup=    2.000000
1 -0.063286293944656
2 0.14137630309687
3 0.031664176866705
4 0.29660065324178
5 0.000000027211434
6 -0.000000000000000
7 0.19681452121189
8 0.000000052555044
9 -0.000000000000000
10 0.035892712199898
11 -0.072807969041288
12 0.062279794718014
13 -0.000000000741519
14 -0.060597772058583
15 -0.000000000000000
16 0.000000028433114
17 0.079620574631946
18 0.000000000000000
19 -0.063286293944665
20 0.14137630309690
21 0.031664176866704
22 -0.29660065324176
23 -0.000000027211432
24 -0.000000000000000
25 -0.19681452121191
26 -0.000000052555048
27 -0.000000000000000
28 0.035892712199898
29 -0.072807969041286
30 0.062279794718024
31 0.000000000741500
32 0.060597772058578
33 -0.000000000000000
34 -0.000000028433125
35 -0.079620574631889
36 0.000000000000000
37 0.21950597942375
38 0.081253489870600
39 -0.007164741318240
40 0.030067103807882
41 0.21950597942375
42 0.081253489870587
43 -0.007164741318241
44 0.030067103807838
 Sym=      9.1
 Ene=      -0.6537
 Spin= Alpha
 Occup=    2.000000
1 -0.034499741344833
2 0.082218320471704
3 -0.014776388615192
4 -0.058430980731787
5 -0.000000019129902
6 -0.000000000000000
7 0.039854783316401
8 0.000000016251478
9 -0.000000000000000
10 0.072141275684728
11 -0.14042770398251
12 -0.11448129257524
13 0.000000031266857
14 0.26400911186507
15 -0.000000000000000
16 0.000000049364889
17 0.16154124443358
18 -0.000000000000000
19 -0.034499741344833
20 0.082218320471711
21 -0.014776388615214
22 0.058430980731783
23 0.000000019129918
24 0.000000000000000
25 -0.039854783316354
26 -0.000000016251475
27 0.000000000000000
28 0.072141275684724
29 -0.14042770398251
30 -0.11448129257523
31 -0.000000031266856
32 -0.26400911186509
33 -0.000000000000000
34 -0.000000049364894
35 -0.16154124443356
36 0.000000000000000
37 0.014163400107771
38 -0.011087956646041
39 -0.21407664301873
40 -0.10963796529668
41 0.014163400107773
42 -0.011087956645996
43 -0.21407664301874
44 -0.10963796529670
 Sym=     10.1
 Ene=      -0.5436
 Spin= Alpha
 Occup=    2.000000
1 0.000000007626200
2 -0.000000004355529
3 -0.000000009029363
4 -0.000000015994579
5 0.35895767096326
6 -0.000000000000000
7 0.000000029155787
8 0.17966537668732
9 -0.000000000000000
10 0.000000009092860
11 -0.000000005849496
12 0.000000017678125
13 -0.28689917410772
14 0.000000026688354
15 -0.000000000000000
16 -0.093752581891283
17 -0.000000007101446
18 -0.000000000000000
19 0.000000007626203
20 -0.000000004355520
21 -0.000000009029433
22 0.000000015994559
23 -0.35895767096325
24 0.000000000000000
25 -0.000000029155831
26 -0.17966537668732
27 0.000000000000000
28 0.000000009092860
29 -0.000000005849503
30 0.000000017678154
31 0.28689917410774
32 -0.000000026688388
33 -0.000000000000000
34 0.093752581891255
35 0.000000007101387
36 -0.000000000000000
37 -0.000000020962897
38 -0.000000037032353
39 -0.000000027597347
40 -0.000000039029370
41 -0.000000020962884
42 -0.000000037032354
43 -0.000000027597371
44 -0.000000039029362
 Sym=     11.1
 Ene=      -0.5359
 Spin= Alpha
 Occup=    2.000000
1 0.045477911577530
2 -0.098336733617292
3 -0.17966386670500
4 0.35483593166870
5 -0.000000034836100
6 -0.000000000000000
7 0.21120366790540
8 0.000000006900919
9 -0.000000000000000
10 0.000000003370069
11 0.000000003584348
12 0.000000013870454
13 -0.21948405832939
14 0.000000062933853
15 0.000000000000000
16 -0.077195351018808
17 0.000000028581061
18 0.000000000000000
19 -0.045477911577525
20 0.098336733617289
21 0.17966386670495
22 0.35483593166871
23 -0.000000034836120
24 0.000000000000000
25 0.21120366790538
26 0.000000006900930
27 0.000000000000001
28 -0.000000003370073
29 -0.000000003584360
30 -0.000000013870353
31 -0.21948405832938
32 0.000000062933844
33 0.000000000000000
34 -0.077195351018777
35 0.000000028581071
36 0.000000000000001
37 0.19512827558906
38 0.13770771908753
39 -0.000000044817078
40 -0.000000038329447
41 -0.19512827558907
42 -0.13770771908755
43 0.000000044817077
44 0.000000038329399
 Sym=     12.1
 Ene=      -0.4891
 Spin= Alpha
 Occup=    2.000000
1 -0.000000014778578
2 0.000000028216995
3 0.000000035309887
4 -0.000000062234511
5 -0.25373284428961
6 -0.000000000000001
7 -0.000000042308088
8 -0.11084458372435
9 -0.000000000000001
10 -0.015438474364044
11 0.032013697237814
12 0.061865742251312
13 0.000000040134424
14 0.31815465036851
15 -0.000000000000001
16 0.000000029696025
17 0.18573551500760
18 -0.000000000000001
19 0.000000014778572
20 -0.000000028217028
21 -0.000000035309344
22 -0.000000062234512
23 -0.25373284428965
24 -0.000000000000001
25 -0.000000042307684
26 -0.11084458372440
27 -0.000000000000001
28 0.015438474364052
29 -0.032013697237780
30 -0.061865742251842
31 0.000000040134453
32 0.31815465036850
33 -0.000000000000001
34 0.000000029695993
35 0.18573551500801
36 -0.000000000000001
37 -0.000000025342875
38 -0.000000016435483
39 -0.20348372959045
40 -0.16120273945574
41 0.000000025342884
42 0.000000016435616
43 0.20348372959042
44 0.16120273945558
 Sym=     14.1
 Ene=      -0.3410
 Spin= Alpha
 Occup=    2.000000
1 -0.000000000000000
2 -0.000000000000000
3 0.000000000000003
4 0.000000000000000
5 -0.000000000000001
6 0.17269587376543
7 0.000000000000000
8 -0.000000000000001
9 0.11345265169125
10 -0.000000000000000
11 0.000000000000000
12 0.000000000000000
13 0.000000000000000
14 0.000000000000001
15 -0.089833360141039
16 -0.000000000000000
17 -0.000000000000001
18 -0.19564472630448
19 0.000000000000000
20 0.000000000000000
21 -0.000000000000001
22 -0.000000000000000
23 -0.000000000000001
24 0.17269706187891
25 0.000000000000002
26 -0.000000000000001
27 0.11345401375828
28 0.000000000000000
29 -0.000000000000000
30 -0.000000000000001
31 0.000000000000000
32 0.000000000000001
33 0.47442317265663
34 -0.000000000000000
35 0.000000000000000
36 0.46869069490008
37 -0.000000000000000
38 -0.000000000000002
39 -0.000000000000001
40 -0.000000000000003
41 0.000000000000000
42 0.000000000000003
43 0.000000000000001
44 0.000000000000001
 Sym=     13.1
 Ene=      -0.3410
 Spin= Alpha
 Occup=    2.000000
1 -0.000000000000000
2 -0.000000000000000
3 0.000000000000002
4 -0.000000000000000
5 -0.000000000000001
6 0.17269706187890
7 -0.000000000000001
8 -0.000000000000001
9 0.11345401375826
10 0.000000000000000
11 -0.000000000000001
12 0.000000000000000
13 0.000000000000000
14 0.000000000000001
15 0.47442317265663
16 -0.000000000000001
17 -0.000000000000000
18 0.46869069490009
19 -0.000000000000000
20 -0.000000000000000
21 0.000000000000000
22 -0.000000000000000
23 -0.000000000000001
24 0.17269587376544
25 -0.000000000000000
26 0.000000000000001
27 0.11345265169124
28 0.000000000000000
29 0.000000000000000
30 -0.000000000000002
31 0.000000000000000
32 0.000000000000001
33 -0.089833360141032
34 0.000000000000000
35 0.000000000000000
36 -0.19564472630446
37 0.000000000000000
38 0.000000000000000
39 -0.000000000000000
40 -0.000000000000002
41 0.000000000000000
42 -0.000000000000000
43 0.000000000000001
44 0.000000000000001
 Sym=     17.1
 Ene=       0.1513
 Spin= Alpha
 Occup=    0.000000
1 0.000000000000000
2 -0.000000000000001
3 -0.000000000000008
4 -0.000000000000000
5 0.000000000000000
6 0.46336332474621
7 -0.000000000000003
8 0.000000000000000
9 0.83791019848134
10 0.000000000000000
11 0.000000000000000
12 0.000000000000002
13 0.000000000000000
14 -0.000000000000000
15 -0.19282390691940
16 0.000000000000003
17 0.000000000000000
18 -0.47112083737290
19 -0.000000000000001
20 0.000000000000001
21 0.000000000000010
22 -0.000000000000001
23 0.000000000000000
24 -0.062728119196745
25 -0.000000000000006
26 0.000000000000000
27 0.12957033042833
28 -0.000000000000000
29 -0.000000000000000
30 0.000000000000001
31 0.000000000000001
32 0.000000000000000
33 -0.19282283275984
34 0.000000000000003
35 -0.000000000000000
36 -0.47111934385299
37 0.000000000000000
38 0.000000000000008
39 0.000000000000000
40 -0.000000000000001
41 -0.000000000000000
42 -0.000000000000013
43 -0.000000000000000
44 -0.000000000000001
 Sym=     15.1
 Ene=       0.1513
 Spin= Alpha
 Occup=    0.000000
1 0.000000000000000
2 -0.000000000000000
3 -0.000000000000008
4 -0.000000000000001
5 -0.000000000000000
6 -0.062728119196770
7 -0.000000000000004
8 -0.000000000000000
9 0.12957033042831
10 -0.000000000000000
11 -0.000000000000000
12 0.000000000000002
13 0.000000000000001
14 -0.000000000000000
15 -0.19282283275984
16 0.000000000000003
17 0.000000000000000
18 -0.47111934385295
19 -0.000000000000000
20 0.000000000000001
21 0.000000000000009
22 -0.000000000000001
23 -0.000000000000000
24 0.46336332474621
25 -0.000000000000006
26 0.000000000000000
27 0.83791019848133
28 -0.000000000000000
29 0.000000000000000
30 0.000000000000001
31 0.000000000000001
32 0.000000000000000
33 -0.19282390691939
34 0.000000000000003
35 -0.000000000000000
36 -0.47112083737290
37 -0.000000000000000
38 0.000000000000007
39 -0.000000000000000
40 -0.000000000000001
41 0.000000000000000
42 -0.000000000000012
43 0.000000000000000
44 -0.000000000000000
 Sym=     16.1
 Ene=       0.2507
 Spin= Alpha
 Occup=    0.000000
1 0.065266587627686
2 -0.13271603832344
3 -0.37581223400379
4 -0.17394763957002
5 -0.000000014078634
6 0.000000000000000
7 -1.26526256480484
8 -0.000000017436562
9 0.000000000000001
10 -0.004203889318814
11 0.065208061425994
12 -0.93509543435784
13 -0.000000022003813
14 0.079176205282863
15 -0.000000000000001
16 -0.000000028104015
17 -0.54127569727919
18 -0.000000000000001
19 0.065266587627849
20 -0.13271603832343
21 -0.37581223400747
22 0.17394763957023
23 0.000000014078669
24 0.000000000000001
25 1.26526256480610
26 0.000000017436747
27 0.000000000000001
28 -0.004203889318784
29 0.065208061425990
30 -0.93509543435855
31 0.000000022003624
32 -0.079176205282868
33 -0.000000000000001
34 0.000000028102591
35 0.54127569727838
36 -0.000000000000001
37 0.064907685191065
38 1.74402023719722
39 0.014642350407356
40 -0.011283234873941
41 0.064907685191070
42 1.74402023720019
43 0.014642350407358
44 -0.011283234872879
 Sym=     18.1
 Ene=       0.2854
 Spin= Alpha
 Occup=    0.000000
1 -0.074624600057139
2 0.11152710414932
3 1.42353034977793
4 0.17925543262305
5 0.000000094016964
6 0.000000000000002
7 0.83852281005113
8 0.000000289950891
9 0.000000000000006
10 -0.000000039090847
11 0.000000036647511
12 0.000000676929428
13 -0.10400931405620
14 0.000000009680311
15 -0.000000000000002
16 -0.45260059295088
17 -0.000000044896779
18 -0.000000000000005
19 0.074624600056895
20 -0.11152710415024
21 -1.42353034976012
22 0.17925543262250
23 0.000000094016981
24 0.000000000000002
25 0.83852281006240
26 0.000000289951253
27 0.000000000000006
28 0.000000039090834
29 -0.000000036646380
30 -0.000000676941824
31 -0.10400931405618
32 0.000000009680792
33 -0.000000000000003
34 -0.45260059295051
35 -0.000000044882551
36 -0.000000000000006
37 0.017854583672382
38 -1.66527862209524
39 -0.000000012975090
40 -0.000000368051977
41 -0.017854583672421
42 1.66527862209723
43 0.000000012974826
44 0.000000368042928
 Sym=     19.1
 Ene=       0.3092
 Spin= Alpha
 Occup=    0.000000
1 0.023099921099554
2 -0.13357315959622
3 1.05044343375129
4 0.044941076725358
5 -0.000000037590067
6 -0.000000000000000
7 -1.11557062024019
8 -0.000000069932668
9 -0.000000000000000
10 -0.070539236260240
11 0.14083918651766
12 -0.020813336453594
13 -0.000000028204071
14 -0.13152710870537
15 0.000000000000000
16 -0.000000070266810
17 -1.67216092756305
18 0.000000000000000
19 0.023099921099358
20 -0.13357315959552
21 1.05044343375423
22 -0.044941076726060
23 0.000000037589935
24 -0.000000000000000
25 1.11557062023735
26 0.000000069931860
27 -0.000000000000000
28 -0.070539236260340
29 0.14083918651784
30 -0.020813336452004
31 0.000000028204382
32 0.13152710870538
33 0.000000000000000
34 0.000000070267532
35 1.67216092756301
36 -0.000000000000000
37 -0.006966347736067
38 0.61881065558315
39 -0.051131445673389
40 -1.91787821923279
41 -0.006966347735985
42 0.61881065557809
43 -0.051131445673413
44 -1.91787821923353
 Sym=     20.1
 Ene=       0.3117
 Spin= Alpha
 Occup=    0.000000
1 0.000000026463741
2 -0.000000059927732
3 -0.000000516020047
4 -0.000000079017527
5 0.16255221203172
6 -0.000000000000000
7 -0.000000230431315
8 0.94017289000131
9 -0.000000000000000
10 -0.11237799666881
11 0.11312800024658
12 2.02633044554844
13 -0.000000014296062
14 -0.013824971910268
15 -0.000000000000000
16 0.000000225291969
17 -0.10164938744736
18 0.000000000000000
19 -0.000000026463982
20 0.000000059926760
21 0.000000516037230
22 -0.000000079017688
23 0.16255221203172
24 -0.000000000000000
25 -0.000000230419226
26 0.94017289000109
27 -0.000000000000000
28 0.11237799666899
29 -0.11312800024554
30 -2.02633044556438
31 -0.000000014296090
32 -0.013824971910125
33 -0.000000000000000
34 0.000000225291784
35 -0.10164938743461
36 -0.000000000000000
37 -0.000000045870584
38 0.000000542766313
39 0.016817607152695
40 -1.08010573676628
41 0.000000045870586
42 -0.000000542762666
43 -0.016817607152794
44 1.08010573676099
 Sym=     21.1
 Ene=       0.3821
 Spin= Alpha
 Occup=    0.000000
1 -0.076071463170040
2 0.088095701381515
3 1.42777869856584
4 -0.23224908090186
5 0.000000001721744
6 0.000000000000000
7 -1.48158986108329
8 -0.000001319136448
9 -0.000000000000000
10 0.000000053224814
11 -0.000000047606083
12 -0.000000942895628
13 -0.12753602356043
14 -0.000000392050753
15 0.000000000000000
16 -1.20337468904007
17 -0.000002653462760
18 -0.000000000000000
19 0.076071463170000
20 -0.088095701381546
21 -1.42777869856543
22 -0.23224908090194
23 0.000000001721811
24 0.000000000000000
25 -1.48158986108353
26 -0.000001319135661
27 0.000000000000000
28 -0.000000053224783
29 0.000000047605893
30 0.000000942895474
31 -0.12753602356032
32 -0.000000392050758
33 0.000000000000000
34 -1.20337468903932
35 -0.000002653463010
36 -0.000000000000000
37 0.033389290853897
38 0.98375049322540
39 -0.000000029257250
40 -0.000002493667031
41 -0.033389290853919
42 -0.98375049322596
43 0.000000029257239
44 0.000002493667459
 Sym=     22.1
 Ene=       0.3931
 Spin= Alpha
 Occup=    0.000000
1 -0.000000112829125
2 0.000000102967487
3 0.000002143469145
4 -0.000000356652770
5 0.042969300770348
6 0.000000000000000
7 -0.000002165798244
8 0.88928211937898
9 0.000000000000000
10 -0.038464985081076
11 0.015501906221864
12 0.69136697548549
13 -0.000000217772572
14 0.28040535584231
15 0.000000000000000
16 -0.000001759096886
17 1.79117306995026
18 -0.000000000000000
19 0.000000112829225
20 -0.000000102967201
21 -0.000002143474908
22 -0.000000356652660
23 0.042969300770384
24 0.000000000000000
25 -0.000002165802114
26 0.88928211937984
27 0.000000000000000
28 0.038464985080989
29 -0.015501906222146
30 -0.69136697547992
31 -0.000000217772500
32 0.28040535584232
33 0.000000000000000
34 -0.000001759096032
35 1.79117306994634
36 0.000000000000000
37 0.000000019061508
38 0.000001438987979
39 -0.007438863816390
40 1.67659659265439
41 -0.000000019061520
42 -0.000001438988920
43 0.007438863816402
44 -1.67659659265318
 Sym=     23.1
 Ene=       0.4998
 Spin= Alpha
 Occup=    0.000000
1 -0.000000006434566
2 -0.000000012452345
3 0.000000407956589
4 -0.000000033110931
5 0.25132495967685
6 -0.000000000000000
7 -0.000000356583569
8 1.73639236914654
9 -0.000000000000000
10 0.000000004513903
11 0.000000007507360
12 -0.000000379706567
13 0.27060077839215
14 -0.000000037260662
15 -0.000000000000000
16 1.77420905605583
17 -0.000000368446091
18 0.000000000000000
19 -0.000000006434524
20 -0.000000012452497
21 0.000000407956034
22 0.000000033110888
23 -0.25132495967689
24 -0.000000000000000
25 0.000000356583013
26 -1.73639236914629
27 -0.000000000000000
28 0.000000004513898
29 0.000000007507290
30 -0.000000379706467
31 -0.27060077839225
32 0.000000037260863
33 -0.000000000000000
34 -1.77420905605630
35 0.000000368446342
36 0.000000000000000
37 -0.000000043467806
38 0.000000200319512
39 0.000000036326158
40 -0.000000224775420
41 -0.000000043467847
42 0.000000200319284
43 0.000000036326155
44 -0.000000224775944
 Sym=     24.1
 Ene=       0.6941
 Spin= Alpha
 Occup=    0.000000
1 -0.000000009090862
2 -0.000000583341594
3 0.000001004686286
4 -0.000000102635550
5 -0.52272391897036
6 -0.000000000000000
7 0.000000242701395
8 0.76305489090616
9 0.000000000000001
10 0.000000012743659
11 -0.000000518766600
12 0.000000418435120
13 0.40639411545018
14 0.000000056768203
15 0.000000000000001
16 -0.32634321748217
17 -0.000000353170251
18 -0.000000000000001
19 -0.000000009090857
20 -0.000000583341650
21 0.000001004686359
22 0.000000102635493
23 0.52272391897029
24 -0.000000000000000
25 -0.000000242701316
26 -0.76305489090613
27 0.000000000000001
28 0.000000012743651
29 -0.000000518766606
30 0.000000418435181
31 -0.40639411545024
32 -0.000000056768161
33 0.000000000000001
34 0.32634321748220
35 0.000000353170103
36 -0.000000000000001
37 -0.000000376152876
38 -0.000000123921327
39 -0.000000304132159
40 -0.000000094168421
41 -0.000000376152867
42 -0.000000123921315
43 -0.000000304132182
44 -0.000000094168370
 Sym=     25.1
 Ene=       0.7174
 Spin= Alpha
 Occup=    0.000000
1 -0.13254655244552
2 -0.048021287399661
3 5.57900882526155
4 -0.14645139863084
5 0.000000149640631
6 0.000000000000002
7 -4.13060384849874
8 -0.000000489360637
9 -0.000000000000002
10 0.13545709776036
11 -0.11229653853477
12 -5.36143912326063
13 -0.000000070548128
14 -0.12580259871886
15 0.000000000000001
16 -0.000000238370150
17 -4.26270284667327
18 0.000000000000000
19 -0.13254655244555
20 -0.048021287396500
21 5.57900882525593
22 0.14645139862942
23 -0.000000149640923
24 0.000000000000002
25 4.13060384850160
26 0.000000489361660
27 -0.000000000000002
28 0.13545709776026
29 -0.11229653853194
30 -5.36143912326472
31 0.000000070547940
32 0.12580259871965
33 0.000000000000001
34 0.000000238368993
35 4.26270284667256
36 0.000000000000000
37 -0.33308872981738
38 1.69229259739085
39 0.12237808677248
40 -1.64618443092062
41 -0.33308872981685
42 1.69229259739288
43 0.12237808677284
44 -1.64618443092046
 Sym=     26.1
 Ene=       0.7378
 Spin= Alpha
 Occup=    0.000000
1 0.026541595965846
2 -0.62441403194786
3 -0.45133566477404
4 -0.058032138540237
5 0.000000456667716
6 -0.000000000000000
7 1.39049514493295
8 -0.000000630850784
9 -0.000000000000000
10 -0.024005430895521
11 -0.53541294463100
12 1.92460653586453
13 -0.000000360021934
14 0.084571663087580
15 -0.000000000000000
16 0.000000330206913
17 0.78345842048353
18 0.000000000000001
19 0.026541595965857
20 -0.62441403194848
21 -0.45133566477293
22 0.058032138540763
23 -0.000000456667699
24 -0.000000000000000
25 -1.39049514493416
26 0.000000630850559
27 -0.000000000000000
28 -0.024005430895502
29 -0.53541294463170
30 1.92460653586556
31 0.000000360022014
32 -0.084571663087805
33 -0.000000000000000
34 -0.000000330206660
35 -0.78345842048328
36 0.000000000000000
37 -0.35733050595400
38 -0.55145638493153
39 -0.40053379630468
40 0.37758916836916
41 -0.35733050595411
42 -0.55145638493225
43 -0.40053379630480
44 0.37758916836908
 Sym=     27.1
 Ene=       0.7895
 Spin= Alpha
 Occup=    0.000000
1 0.000000000000000
2 -0.000000000000000
3 -0.000000000000015
4 0.000000000000001
5 -0.000000000000002
6 0.64747888450453
7 0.000000000000012
8 0.000000000000002
9 -0.58030365498485
10 -0.000000000000000
11 0.000000000000000
12 0.000000000000014
13 0.000000000000000
14 -0.000000000000000