[Molden Format]
[Atoms] Angs
C     1    6         1.0248323800        0.0000000000        0.0000000000
C     2    6         0.0000000000       -1.0248323800        0.0000000000
C     3    6        -1.0248323800        0.0000000000        0.0000000000
C     4    6         0.0000000000        1.0248323800        0.0000000000
H     5    1         2.1005277400        0.0000000000        0.0000000000
H     6    1         0.0000000000       -2.1005277400        0.0000000000
H     7    1        -2.1005277400        0.0000000000        0.0000000000
H     8    1         0.0000000000        2.1005277400        0.0000000000
[GTO]
   1 0
 s    6  1.00
  0.3047524900D+04  0.1834737091D-02
  0.4573695200D+03  0.1403732293D-01
  0.1039486800D+03  0.6884262165D-01
  0.2921015500D+02  0.2321844388D+00
  0.9286663000D+01  0.4679413476D+00
  0.3163927000D+01  0.3623119882D+00
 s    3  1.00
  0.7868272300D+01 -0.1193324245D+00
  0.1881288500D+01 -0.1608541561D+00
  0.5442492600D+00  0.1143456443D+01
 s    1  1.00
  0.1687144800D+00  0.1000000000D+01
 p    3  1.00
  0.7868272300D+01  0.6899906693D-01
  0.1881288500D+01  0.3164239597D+00
  0.5442492600D+00  0.7443082892D+00
 p    1  1.00
  0.1687144800D+00  0.1000000000D+01
  
   2 0
 s    6  1.00
  0.3047524900D+04  0.1834737091D-02
  0.4573695200D+03  0.1403732293D-01
  0.1039486800D+03  0.6884262165D-01
  0.2921015500D+02  0.2321844388D+00
  0.9286663000D+01  0.4679413476D+00
  0.3163927000D+01  0.3623119882D+00
 s    3  1.00
  0.7868272300D+01 -0.1193324245D+00
  0.1881288500D+01 -0.1608541561D+00
  0.5442492600D+00  0.1143456443D+01
 s    1  1.00
  0.1687144800D+00  0.1000000000D+01
 p    3  1.00
  0.7868272300D+01  0.6899906693D-01
  0.1881288500D+01  0.3164239597D+00
  0.5442492600D+00  0.7443082892D+00
 p    1  1.00
  0.1687144800D+00  0.1000000000D+01
  
   3 0
 s    6  1.00
  0.3047524900D+04  0.1834737091D-02
  0.4573695200D+03  0.1403732293D-01
  0.1039486800D+03  0.6884262165D-01
  0.2921015500D+02  0.2321844388D+00
  0.9286663000D+01  0.4679413476D+00
  0.3163927000D+01  0.3623119882D+00
 s    3  1.00
  0.7868272300D+01 -0.1193324245D+00
  0.1881288500D+01 -0.1608541561D+00
  0.5442492600D+00  0.1143456443D+01
 s    1  1.00
  0.1687144800D+00  0.1000000000D+01
 p    3  1.00
  0.7868272300D+01  0.6899906693D-01
  0.1881288500D+01  0.3164239597D+00
  0.5442492600D+00  0.7443082892D+00
 p    1  1.00
  0.1687144800D+00  0.1000000000D+01
  
   4 0
 s    6  1.00
  0.3047524900D+04  0.1834737091D-02
  0.4573695200D+03  0.1403732293D-01
  0.1039486800D+03  0.6884262165D-01
  0.2921015500D+02  0.2321844388D+00
  0.9286663000D+01  0.4679413476D+00
  0.3163927000D+01  0.3623119882D+00
 s    3  1.00
  0.7868272300D+01 -0.1193324245D+00
  0.1881288500D+01 -0.1608541561D+00
  0.5442492600D+00  0.1143456443D+01
 s    1  1.00
  0.1687144800D+00  0.1000000000D+01
 p    3  1.00
  0.7868272300D+01  0.6899906693D-01
  0.1881288500D+01  0.3164239597D+00
  0.5442492600D+00  0.7443082892D+00
 p    1  1.00
  0.1687144800D+00  0.1000000000D+01
  
   5 0
 s    3  1.00
  0.1873113700D+02  0.3349460400D-01
  0.2825394400D+01  0.2347269500D+00
  0.6401216900D+00  0.8137573301D+00
 s    1  1.00
  0.1612777600D+00  0.1000000000D+01
  
   6 0
 s    3  1.00
  0.1873113700D+02  0.3349460400D-01
  0.2825394400D+01  0.2347269500D+00
  0.6401216900D+00  0.8137573301D+00
 s    1  1.00
  0.1612777600D+00  0.1000000000D+01
  
   7 0
 s    3  1.00
  0.1873113700D+02  0.3349460400D-01
  0.2825394400D+01  0.2347269500D+00
  0.6401216900D+00  0.8137573301D+00
 s    1  1.00
  0.1612777600D+00  0.1000000000D+01
  
   8 0
 s    3  1.00
  0.1873113700D+02  0.3349460400D-01
  0.2825394400D+01  0.2347269500D+00
  0.6401216900D+00  0.8137573301D+00
 s    1  1.00
  0.1612777600D+00  0.1000000000D+01


[MO]
 Sym=      1.1
 Ene=     -11.3213
 Spin= Alpha
 Occup=    2.000000
1 0.70454381924302
2 0.017532000543694
3 -0.019411373223739
4 -0.000141480404898
5 -0.000000002606491
6 -0.000000000000000
7 0.007544753497752
8 0.000000002199576
9 0.000000000000000
10 0.004130928987429
11 -0.001395568531244
12 0.014858019658695
13 -0.000000000458305
14 -0.000227029923218
15 0.000000000000000
16 0.000000000957193
17 0.007711003443591
18 -0.000000000000000
19 0.70454382040956
20 0.017532000572306
21 -0.019411373242405
22 0.000141480405183
23 0.000000002606491
24 -0.000000000000000
25 -0.007544753502262
26 -0.000000002199574
27 0.000000000000000
28 0.004130928987424
29 -0.001395568531243
30 0.014858019658689
31 0.000000000458347
32 0.000227029923218
33 0.000000000000000
34 -0.000000000961084
35 -0.007711003443588
36 -0.000000000000000
37 -0.000383765519388
38 -0.000184397117966
39 -0.000083428467586
40 0.001673570485989
41 -0.000383765519839
42 -0.000184397116503
43 -0.000083428467586
44 0.001673570485989
 Sym=      2.1
 Ene=     -11.3213
 Spin= Alpha
 Occup=    2.000000
1 0.70452167150652
2 0.017280424450302
3 -0.011275447100345
4 -0.000171830183990
5 -0.000000003052727
6 -0.000000000000000
7 0.002722846063316
8 0.000000000664589
9 0.000000000000000
10 -0.000000006870096
11 0.000000000581968
12 -0.000000003219335
13 -0.000025414193680
14 -0.000000000034511
15 0.000000000000000
16 0.002350569255751
17 -0.000000004874650
18 0.000000000000000
19 -0.70452167033993
20 -0.017280424421269
21 0.011275447068161
22 -0.000171830183756
23 -0.000000003052728
24 0.000000000000000
25 0.002722846050798
26 0.000000000664590
27 -0.000000000000000
28 0.000000006876935
29 -0.000000000584283
30 0.000000003243977
31 -0.000025414193681
32 -0.000000000034134
33 0.000000000000000
34 0.002350569255752
35 -0.000000004887447
36 -0.000000000000000
37 -0.000272080139705
38 0.000885217631550
39 -0.000000000368955
40 -0.000000001936482
41 0.000272080139069
42 -0.000885217631861
43 0.000000000368818
44 0.000000001939262
 Sym=      3.1
 Ene=     -11.1852
 Spin= Alpha
 Occup=    2.000000
1 0.000000007519589
2 0.000000000921626
3 -0.000000003318138
4 -0.000000000035271
5 0.000172461347033
6 -0.000000000000000
7 0.000000004358144
8 -0.002173713631746
9 -0.000000000000000
10 0.70437120961083
11 0.017671201362077
12 -0.010645029703337
13 0.000000002578041
14 0.000868386097730
15 -0.000000000000000
16 -0.000000000402540
17 -0.003315383587593
18 -0.000000000000000
19 -0.000000007537451
20 -0.000000000927947
21 0.000000003372068
22 -0.000000000036984
23 0.000172461347033
24 0.000000000000000
25 0.000000004385410
26 -0.002173713631747
27 0.000000000000000
28 -0.70437120687756
29 -0.017671201292317
30 0.010645029633450
31 0.000000002578041
32 0.000868386094229
33 -0.000000000000000
34 -0.000000000402541
35 -0.003315383559160
36 0.000000000000000
37 -0.000000000310813
38 -0.000000001669301
39 -0.000320872170678
40 0.000434215677137
41 0.000000000310359
42 0.000000001674990
43 0.000320872169251
44 -0.000434215678491
 Sym=      4.1
 Ene=     -11.1852
 Spin= Alpha
 Occup=    2.000000
1 0.004601863932901
2 0.001626735333347
3 -0.013877186208608
4 -0.000440803891774
5 -0.000000000331247
6 0.000000000000000
7 0.007012181280998
8 0.000000000810384
9 0.000000000000000
10 -0.70439597158866
11 -0.017975697353857
12 0.017989655465711
13 -0.000000002183382
14 -0.000901890414382
15 -0.000000000000000
16 0.000000001835384
17 0.007312586152445
18 -0.000000000000000
19 0.004601863932902
20 0.001626735333347
21 -0.013877186208607
22 0.000440803891773
23 0.000000000331915
24 0.000000000000000
25 -0.007012181280996
26 -0.000000000818819
27 0.000000000000000
28 -0.70439597432182
29 -0.017975697422426
30 0.017989655507018
31 0.000000002183382
32 0.000901890417752
33 -0.000000000000000
34 -0.000000001835383
35 -0.007312586165313
36 0.000000000000000
37 0.000117317776744
38 -0.001461709316769
39 0.000366973260788
40 0.000344000203510
41 0.000117317776744
42 -0.001461709316767
43 0.000366973262034
44 0.000344000201826
 Sym=      5.1
 Ene=      -1.1749
 Spin= Alpha
 Occup=    2.000000
1 -0.11414017251064
2 0.23869283996386
3 0.12026143410656
4 -0.11593915822496
5 -0.000000073206360
6 -0.000000000000000
7 -0.007834656320862
8 -0.000000013287011
9 -0.000000000000000
10 -0.10413725397830
11 0.19747831618204
12 0.12337598370713
13 0.000000068894170
14 0.11355593698125
15 0.000000000000000
16 0.000000004856470
17 0.025583777037411
18 -0.000000000000000
19 -0.11414017251065
20 0.23869283996388
21 0.12026143410654
22 0.11593915822496
23 0.000000073206317
24 -0.000000000000000
25 0.007834656320898
26 0.000000013287003
27 -0.000000000000000
28 -0.10413725397828
29 0.19747831618202
30 0.12337598370706
31 -0.000000068894181
32 -0.11355593698125
33 0.000000000000000
34 -0.000000004856489
35 -0.025583777037438
36 0.000000000000000
37 0.042358554892084
38 0.002941163385853
39 0.031815803431541
40 0.007466163721170
41 0.042358554892093
42 0.002941163385891
43 0.031815803431531
44 0.007466163721201
 Sym=      6.1
 Ene=      -0.8984
 Spin= Alpha
 Occup=    2.000000
1 -0.14254315450983
2 0.31153746355886
3 0.26896299765246
4 0.052543752087734
5 -0.000000172437649
6 -0.000000000000000
7 0.042839600661713
8 -0.000000144422060
9 -0.000000000000000
10 -0.000000039320710
11 0.000000151311146
12 -0.000000192689668
13 0.14226433729061
14 0.000000023639195
15 0.000000000000000
16 0.017359055413200
17 -0.000000132932006
18 0.000000000000000
19 0.14254315450982
20 -0.31153746355890
21 -0.26896299765188
22 0.052543752087783
23 -0.000000172437616
24 0.000000000000000
25 0.042839600662113
26 -0.000000144422027
27 0.000000000000000
28 0.000000039320705
29 -0.000000151311085
30 0.000000192689139
31 0.14226433729059
32 0.000000023639178
33 -0.000000000000000
34 0.017359055413203
35 -0.000000132931586
36 -0.000000000000000
37 0.15018521493463
38 0.039076724184749
39 0.000000028369893
40 -0.000000031541898
41 -0.15018521493465
42 -0.039076724184676
43 -0.000000028369899
44 0.000000031541749
 Sym=      7.1
 Ene=      -0.8469
 Spin= Alpha
 Occup=    2.000000
1 0.000000061926956
2 -0.000000056024700
3 -0.000000391702235
4 -0.000000057467396
5 -0.20205747360242
6 0.000000000000000
7 0.000000115358466
8 -0.041908194455023
9 0.000000000000000
10 -0.14167237152776
11 0.27253901719618
12 0.28867138773036
13 0.000000053645814
14 -0.011363847840325
15 -0.000000000000000
16 0.000000126807806
17 0.006910302693406
18 -0.000000000000000
19 -0.000000061926924
20 0.000000056024652
21 0.000000391702037
22 -0.000000057467396
23 -0.20205747360244
24 -0.000000000000000
25 0.000000115358389
26 -0.041908194455029
27 -0.000000000000000
28 0.14167237152776
29 -0.27253901719620
30 -0.28867138773018
31 0.000000053645827
32 -0.011363847840253
33 -0.000000000000000
34 0.000000126807817
35 0.006910302693339
36 0.000000000000000
37 -0.000000077639637
38 -0.000000068224713
39 0.12186954074853
40 0.050799561505077
41 0.000000077639606
42 0.000000068224686
43 -0.12186954074848
44 -0.050799561505011
 Sym=      8.1
 Ene=      -0.7479
 Spin= Alpha
 Occup=    2.000000
1 -0.063286303124955
2 0.14137633847611
3 0.031664197937029
4 0.29660068657774
5 -0.000000075134460
6 0.000000000000000
7 0.19681446599114
8 -0.000000144473242
9 0.000000000000000
10 0.035892704515904
11 -0.072807948352154
12 0.062279749015648
13 0.000000003944490
14 -0.060597763489036
15 0.000000000000000
16 -0.000000077378856
17 0.079620558012912
18 -0.000000000000000
19 -0.063286303124928
20 0.14137633847606
21 0.031664197936939
22 -0.29660068657777
23 0.000000075134452
24 0.000000000000000
25 -0.19681446599120
26 0.000000144473261
27 0.000000000000000
28 0.035892704515919
29 -0.072807948352184
30 0.062279749015595
31 -0.000000003944446
32 0.060597763489035
33 -0.000000000000000
34 0.000000077378856
35 -0.079620558012910
36 -0.000000000000000
37 0.21950597665295
38 0.081253495001793
39 -0.007164733045487
40 0.030067109437867
41 0.21950597665294
42 0.081253495001792
43 -0.007164733045505
44 0.030067109437859
 Sym=      9.1
 Ene=      -0.6537
 Spin= Alpha
 Occup=    2.000000
1 -0.034499746418385
2 0.082218341035048
3 -0.014776440901294
4 -0.058430986617267
5 0.000000052485568
6 0.000000000000000
7 0.039854800120261
8 -0.000000048708998
9 0.000000000000000
10 0.072141269621948
11 -0.14042767981196
12 -0.11448126859364
13 -0.000000091114885
14 0.26400908806030
15 0.000000000000000
16 -0.000000143103987
17 0.16154129247218
18 0.000000000000000
19 -0.034499746418384
20 0.082218341035053
21 -0.014776440901327
22 0.058430986617272
23 -0.000000052485695
24 -0.000000000000000
25 -0.039854800120292
26 0.000000048708969
27 -0.000000000000000
28 0.072141269621989
29 -0.14042767981203
30 -0.11448126859376
31 0.000000091114882
32 -0.26400908806022
33 0.000000000000000
34 0.000000143103972
35 -0.16154129247205
36 0.000000000000000
37 0.014163409083617
38 -0.011087949294519
39 -0.21407664414835
40 -0.10963795741402
41 0.014163409083613
42 -0.011087949294534
43 -0.21407664414832
44 -0.10963795741400
 Sym=     10.1
 Ene=      -0.5436
 Spin= Alpha
 Occup=    2.000000
1 -0.000000020289024
2 0.000000008378229
3 0.000000008387832
4 0.000000047662070
5 0.35895768039345
6 -0.000000000000000
7 -0.000000075236191
8 0.17966529857274
9 -0.000000000000000
10 -0.000000026900586
11 0.000000018792252
12 -0.000000032491556
13 -0.28689917147988
14 -0.000000072705018
15 -0.000000000000000
16 -0.093752653212456
17 0.000000027512233
18 -0.000000000000000
19 -0.000000020289215
20 0.000000008378646
21 0.000000008388614
22 -0.000000047660493
23 -0.35895768039349
24 -0.000000000000000
25 0.000000075237134
26 -0.17966529857275
27 -0.000000000000000
28 -0.000000026900588
29 0.000000018792258
30 -0.000000032491579
31 0.28689917147896
32 0.000000072705096
33 -0.000000000000000
34 0.093752653212112
35 -0.000000027512189
36 -0.000000000000000
37 0.000000059876985
38 0.000000105551237
39 0.000000077218229
40 0.000000110875753
41 0.000000059876109
42 0.000000105550620
43 0.000000077218282
44 0.000000110875802
 Sym=     11.1
 Ene=      -0.5359
 Spin= Alpha
 Occup=    2.000000
1 0.045477894888303
2 -0.098336697437961
3 -0.17966376851219
4 0.35483596396744
5 0.000000104374563
6 -0.000000000000000
7 0.21120361745644
8 -0.000000010051940
9 0.000000000000000
10 -0.000000011171238
11 -0.000000007349193
12 -0.000000019936429
13 -0.21948403557129
14 -0.000000172860826
15 -0.000000000000000
16 -0.077195392701850
17 -0.000000071770492
18 -0.000000000000000
19 -0.045477894888291
20 0.098336697438082
21 0.17966376851067
22 0.35483596396741
23 0.000000104376143
24 -0.000000000000001
25 0.21120361745536
26 -0.000000010051190
27 -0.000000000000000
28 0.000000011171227
29 0.000000007349072
30 0.000000019937906
31 -0.21948403557258
32 -0.000000172860804
33 -0.000000000000001
34 -0.077195392702287
35 -0.000000071771590
36 -0.000000000000001
37 0.19512828969952
38 0.13770771431714
39 0.000000125276718
40 0.000000108693381
41 -0.19512828969951
42 -0.13770771431745
43 -0.000000125276691
44 -0.000000108693012
 Sym=     12.1
 Ene=      -0.4891
 Spin= Alpha
 Occup=    2.000000
1 0.000000040420366
2 -0.000000076145736
3 -0.000000086512671
4 0.000000172334370
5 -0.25373286920066
6 -0.000000000000000
7 0.000000115776895
8 -0.11084452046004
9 -0.000000000000000
10 -0.015438494235078
11 0.032013737868881
12 0.061865871238969
13 -0.000000117745502
14 0.31815463822434
15 -0.000000000000001
16 -0.000000090736672
17 0.18573557038161
18 -0.000000000000000
19 -0.000000040420349
20 0.000000076145762
21 0.000000086511965
22 0.000000172334355
23 -0.25373286920057
24 -0.000000000000000
25 0.000000115776379
26 -0.11084452046000
27 -0.000000000000000
28 0.015438494235054
29 -0.032013737868891
30 -0.061865871238275
31 -0.000000117745570
32 0.31815463822446
33 -0.000000000000000
34 -0.000000090736680
35 0.18573557038109
36 -0.000000000000000
37 0.000000070714439
38 0.000000044372777
39 -0.20348371591800
40 -0.16120273587606
41 -0.000000070714451
42 -0.000000044372946
43 0.20348371591809
44 0.16120273587631
 Sym=     14.1
 Ene=      -0.3410
 Spin= Alpha
 Occup=    2.000000
1 -0.000000000000000
2 -0.000000000000001
3 0.000000000000003
4 -0.000000000000000
5 0.000000000000000
6 -0.17269827018231
7 -0.000000000000002
8 0.000000000000001
9 -0.11345533666896
10 -0.000000000000000
11 -0.000000000000000
12 0.000000000000000
13 0.000000000000001
14 -0.000000000000000
15 0.089833398730089
16 -0.000000000000001
17 -0.000000000000000
18 0.19564489841441
19 0.000000000000000
20 0.000000000000000
21 -0.000000000000002
22 -0.000000000000001
23 0.000000000000000
24 -0.17269491777071
25 -0.000000000000001
26 0.000000000000000
27 -0.11345149407798
28 0.000000000000000
29 0.000000000000000
30 -0.000000000000001
31 0.000000000000000
32 0.000000000000000
33 -0.47442297828819
34 -0.000000000000001
35 -0.000000000000000
36 -0.46869070387840
37 -0.000000000000000
38 -0.000000000000000
39 0.000000000000000
40 -0.000000000000000
41 0.000000000000000
42 0.000000000000000
43 -0.000000000000000
44 -0.000000000000000
 Sym=     13.1
 Ene=      -0.3410
 Spin= Alpha
 Occup=    2.000000
1 0.000000000000000
2 -0.000000000000000
3 -0.000000000000001
4 -0.000000000000000
5 -0.000000000000000
6 0.17269491777070
7 0.000000000000002
8 0.000000000000000
9 0.11345149407798
10 -0.000000000000000
11 -0.000000000000000
12 0.000000000000001
13 -0.000000000000000
14 0.000000000000000
15 0.47442297828817
16 0.000000000000000
17 -0.000000000000000
18 0.46869070387845
19 -0.000000000000000
20 -0.000000000000000
21 0.000000000000001
22 0.000000000000000
23 -0.000000000000001
24 0.17269827018228
25 0.000000000000001
26 -0.000000000000000
27 0.11345533666896
28 0.000000000000000
29 0.000000000000000
30 -0.000000000000000
31 0.000000000000000
32 0.000000000000000
33 -0.089833398730209
34 0.000000000000000
35 -0.000000000000001
36 -0.19564489841452
37 -0.000000000000000
38 -0.000000000000001
39 -0.000000000000000
40 -0.000000000000001
41 0.000000000000000
42 -0.000000000000000
43 0.000000000000000
44 0.000000000000001
 Sym=     15.1
 Ene=       0.1513
 Spin= Alpha
 Occup=    0.000000
1 0.000000000000000
2 0.000000000000000
3 -0.000000000000002
4 -0.000000000000000
5 0.000000000000000
6 0.062728182709494
7 0.000000000000000
8 -0.000000000000000
9 -0.12957028020203
10 0.000000000000000
11 -0.000000000000000
12 0.000000000000001
13 0.000000000000000
14 -0.000000000000000
15 0.19282497138380
16 0.000000000000000
17 0.000000000000001
18 0.47112223199659
19 -0.000000000000000
20 -0.000000000000000
21 0.000000000000002
22 -0.000000000000000
23 0.000000000000000
24 -0.46336322636887
25 -0.000000000000002
26 0.000000000000000
27 -0.83791018593442
28 -0.000000000000000
29 0.000000000000000
30 0.000000000000001
31 0.000000000000000
32 -0.000000000000000
33 0.19282194078420
34 0.000000000000001
35 -0.000000000000000
36 0.47111801818111
37 -0.000000000000000
38 0.000000000000000
39 -0.000000000000000
40 0.000000000000000
41 -0.000000000000000
42 -0.000000000000002
43 0.000000000000000
44 0.000000000000000
 Sym=     17.1
 Ene=       0.1513
 Spin= Alpha
 Occup=    0.000000
1 -0.000000000000000
2 -0.000000000000000
3 0.000000000000002
4 -0.000000000000000
5 0.000000000000000
6 0.46336322636888
7 -0.000000000000000
8 0.000000000000000
9 0.83791018593440
10 0.000000000000000
11 -0.000000000000000
12 -0.000000000000001
13 0.000000000000000
14 0.000000000000000
15 -0.19282194078424
16 -0.000000000000000
17 -0.000000000000001
18 -0.47111801818106
19 0.000000000000000
20 -0.000000000000000
21 -0.000000000000002
22 0.000000000000000
23 0.000000000000000
24 -0.062728182709547
25 0.000000000000002
26 -0.000000000000000
27 0.12957028020197
28 -0.000000000000000
29 0.000000000000000
30 -0.000000000000000
31 0.000000000000000
32 0.000000000000000
33 -0.19282497138373
34 -0.000000000000001
35 0.000000000000000
36 -0.47112223199657
37 -0.000000000000000
38 -0.000000000000001
39 0.000000000000000
40 -0.000000000000000
41 0.000000000000000
42 0.000000000000003
43 -0.000000000000000
44 -0.000000000000000
 Sym=     16.1
 Ene=       0.2507
 Spin= Alpha
 Occup=    0.000000
1 0.065266578431619
2 -0.13271599421507
3 -0.37581222588207
4 -0.17394760775428
5 0.000000038517540
6 -0.000000000000000
7 -1.26526261140852
8 0.000000048323782
9 -0.000000000000000
10 -0.004203879256807
11 0.065208060196501
12 -0.93509561417762
13 0.000000062716727
14 0.079176235790686
15 0.000000000000000
16 0.000000079666243
17 -0.54127565734344
18 0.000000000000001
19 0.065266578431860
20 -0.13271599421550
21 -0.37581222588679
22 0.17394760775491
23 -0.000000038517541
24 0.000000000000000
25 1.26526261141333
26 -0.000000048323753
27 -0.000000000000001
28 -0.004203879256823
29 0.065208060196515
30 -0.93509561417722
31 -0.000000062716994
32 -0.079176235790598
33 0.000000000000000
34 -0.000000079667428
35 0.54127565734439
36 0.000000000000000
37 0.064907679144634
38 1.74402026675732
39 0.014642363490692
40 -0.011283068093111
41 0.064907679144590
42 1.74402026676471
43 0.014642363490696
44 -0.011283068094248
 Sym=     18.1
 Ene=       0.2854
 Spin= Alpha
 Occup=    0.000000
1 -0.074624613498801
2 0.11152709425175
3 1.42353067487935
4 0.17925533228364
5 -0.000000261816253
6 -0.000000000000000
7 0.83852257403335
8 -0.000000807258951
9 -0.000000000000001
10 0.000000109474889
11 -0.000000102743879
12 -0.000001892691218
13 -0.10400936608599
14 -0.000000027465489
15 0.000000000000000
16 -0.45260081683206
17 0.000000131117751
18 0.000000000000001
19 0.074624613498478
20 -0.11152709425250
21 -1.42353067486087
22 0.17925533228266
23 -0.000000261816215
24 -0.000000000000000
25 0.83852257404268
26 -0.000000807258902
27 -0.000000000000001
28 -0.000000109475015
29 0.000000102744847
30 0.000001892682392
31 -0.10400936608594
32 -0.000000027464615
33 0.000000000000000
34 -0.45260081683200
35 0.000000131132285
36 0.000000000000001
37 0.017854585164103
38 -1.66527849184642
39 0.000000037469137
40 0.000001037135421
41 -0.017854585164366
42 1.66527849184560
43 -0.000000037469508
44 -0.000001037147020
 Sym=     19.1
 Ene=       0.3092
 Spin= Alpha
 Occup=    0.000000
1 0.023099929938507
2 -0.13357314241605
3 1.05044314193538
4 0.044941055107368
5 0.000000105444358
6 -0.000000000000000
7 -1.11557061202200
8 0.000000197240976
9 -0.000000000000000
10 -0.070539243824723
11 0.14083923912889
12 -0.020813293644971
13 0.000000080510687
14 -0.13152713066386
15 -0.000000000000000
16 0.000000199373647
17 -1.67216079336883
18 0.000000000000000
19 0.023099929938197
20 -0.13357314241528
21 1.05044314194058
22 -0.044941055108338
23 -0.000000105448400
24 -0.000000000000000
25 1.11557061201783
26 -0.000000197263603
27 -0.000000000000000
28 -0.070539243827558
29 0.14083923913200
30 -0.020813293593661
31 -0.000000080510236
32 0.13152713066452
33 0.000000000000000
34 -0.000000199372289
35 1.67216079337770
36 0.000000000000000
37 -0.006966330933509
38 0.61881081561309
39 -0.051131454861153
40 -1.91787811047456
41 -0.006966330933406
42 0.61881081560540
43 -0.051131454860710
44 -1.91787811050810
 Sym=     20.1
 Ene=       0.3117
 Spin= Alpha
 Occup=    0.000000
1 -0.000000074327936
2 0.000000168983264
3 0.000001436623283
4 0.000000220331373
5 0.16255219891949
6 0.000000000000000
7 0.000000651939466
8 0.94017272807220
9 -0.000000000000000
10 -0.11237799147250
11 0.11312804672165
12 2.02633021690798
13 0.000000044479202
14 -0.013825057774719
15 -0.000000000000000
16 -0.000000621966316
17 -0.10164966465502
18 0.000000000000000
19 0.000000074328739
20 -0.000000168986251
21 -0.000001436607692
22 0.000000220330254
23 0.16255219891945
24 0.000000000000000
25 0.000000651960534
26 0.94017272807230
27 -0.000000000000000
28 0.11237799147046
29 -0.11312804671852
30 -2.02633021689691
31 0.000000044479233
32 -0.013825057771201
33 -0.000000000000000
34 -0.000000621966306
35 -0.10164966461963
36 0.000000000000000
37 0.000000127349569
38 -0.000001526647883
39 0.016817614698633
40 -1.08010596217295
41 -0.000000127349766
42 0.000001526661843
43 -0.016817614699931
44 1.08010596212537
 Sym=     21.1
 Ene=       0.3821
 Spin= Alpha
 Occup=    0.000000
1 -0.076071450475702
2 0.088095660729642
3 1.42777841528144
4 -0.23224911447772
5 -0.000000001994092
6 -0.000000000000000
7 -1.48159007411223
8 0.000003738008679
9 0.000000000000000
10 -0.000000150990408
11 0.000000134532621
12 0.000002681696998
13 -0.12753602837563
14 0.000001105726057
15 -0.000000000000000
16 -1.20337457773110
17 0.000007496664998
18 0.000000000000000
19 0.076071450475765
20 -0.088095660729549
21 -1.42777841528418
22 -0.23224911447760
23 -0.000000001993958
24 -0.000000000000000
25 -1.48159007411372
26 0.000003738009300
27 0.000000000000000
28 0.000000150990397
29 -0.000000134532751
30 -0.000002681695131
31 -0.12753602837556
32 0.000001105725889
33 -0.000000000000000
34 -1.20337457773038
35 0.000007496663121
36 0.000000000000000
37 0.033389262983948
38 0.98375087034753
39 0.000000084166509
40 0.000007040168604
41 -0.033389262983907
42 -0.98375087034752
43 -0.000000084166486
44 -0.000007040167419
 Sym=     22.1
 Ene=       0.3931
 Spin= Alpha
 Occup=    0.000000
1 0.000000318563107
2 -0.000000290481733
3 -0.000006062796414
4 0.000001004734320
5 0.042969355559140
6 -0.000000000000000
7 0.000006116602920
8 0.88928223110379
9 -0.000000000000000
10 -0.038464999981914
11 0.015501934932277
12 0.69136722232864
13 0.000000616398572
14 0.28040539918886
15 -0.000000000000000
16 0.000004975761015
17 1.79117288386793
18 0.000000000000000
19 -0.000000318563395
20 0.000000290481740
21 0.000006062807869
22 0.000001004734299
23 0.042969355559051
24 -0.000000000000000
25 0.000006116610315
26 0.88928223110283
27 -0.000000000000000
28 0.038464999982296
29 -0.015501934931930
30 -0.69136722234219
31 0.000000616398500
32 0.28040539918838
33 0.000000000000000
34 0.000004975760003
35 1.79117288387446
36 0.000000000000000
37 -0.000000055670618
38 -0.000004061101580
39 -0.007438841447611
40 1.67659631334891
41 0.000000055670678
42 0.000004061103032
43 0.007438841447740
44 -1.67659631334806
 Sym=     23.1
 Ene=       0.4998
 Spin= Alpha
 Occup=    0.000000
1 0.000000017826442
2 0.000000035606121
3 -0.000001152263736
4 0.000000092287743
5 0.25132494226673
6 0.000000000000000
7 0.000001004807275
8 1.73639235478459
9 -0.000000000000000
10 -0.000000012834935
11 -0.000000021077566
12 0.000001069689469
13 0.27060083073456
14 0.000000106123428
15 0.000000000000000
16 1.77420893804252
17 0.000001042125982
18 0.000000000000000
19 0.000000017826461
20 0.000000035605852
21 -0.000001152263911
22 -0.000000092287878
23 -0.25132494226677
24 0.000000000000000
25 -0.000001004807308
26 -1.73639235478491
27 -0.000000000000000
28 -0.000000012834948
29 -0.000000021077447
30 0.000001069689486
31 -0.27060083073446
32 -0.000000106123638
33 0.000000000000000
34 -1.77420893804299
35 -0.000001042126506
36 0.000000000000000
37 0.000000122544207
38 -0.000000564913389
39 -0.000000102619416
40 0.000000635356070
41 0.000000122544140
42 -0.000000564913429
43 -0.000000102619419
44 0.000000635356751
 Sym=     24.1
 Ene=       0.6941
 Spin= Alpha
 Occup=    0.000000
1 0.000000022144841
2 0.000001644763677
3 -0.000002683765934
4 0.000000284203537
5 -0.52272382929613
6 -0.000000000000001
7 -0.000000795921980
8 0.76305440240612
9 0.000000000000001
10 -0.000000032238724
11 0.000001460317890
12 -0.000001325145743
13 0.40639422105370
14 -0.000000164559241
15 -0.000000000000001
16 -0.32634372798697
17 0.000000881087292
18 0.000000000000000
19 0.000000022144828
20 0.000001644763693
21 -0.000002683765896
22 -0.000000284203463
23 0.52272382929638
24 -0.000000000000001
25 0.000000795921953
26 -0.76305440240626
27 0.000000000000001
28 -0.000000032238697
29 0.000001460317838
30 -0.000001325145741
31 -0.40639422105354
32 0.000000164559277
33 -0.000000000000001
34 0.32634372798692
35 -0.000000881087140
36 0.000000000000001
37 0.000001052315249
38 0.000000395226610
39 0.000000861418215
40 0.000000220703072
41 0.000001052315194
42 0.000000395226646
43 0.000000861418284
44 0.000000220702973
 Sym=     25.1
 Ene=       0.7174
 Spin= Alpha
 Occup=    0.000000
1 -0.13254655208304
2 -0.048021298936728
3 5.57900871759206
4 -0.14645137767284
5 -0.000000405340256
6 -0.000000000000000
7 -4.13060393068277
8 0.000001360314263
9 0.000000000000000
10 0.13545710167941
11 -0.11229660950648
12 -5.36143900000376
13 0.000000186226531
14 -0.12580264168738
15 -0.000000000000000
16 0.000000680695295
17 -4.26270282614944
18 0.000000000000000
19 -0.13254655208312
20 -0.048021298935205
21 5.57900871758983
22 0.14645137767141
23 0.000000405340901
24 -0.000000000000000
25 4.13060393068650
26 -0.000001360315263
27 0.000000000000000
28 0.13545710167955
29 -0.11229660950732
30 -5.36143900000311
31 -0.000000186226419
32 0.12580264168585
33 -0.000000000000000
34 -0.000000680696028
35 4.26270282615272
36 0.000000000000000
37 -0.33308864894398
38 1.69229259780715
39 0.12237814428485
40 -1.64618453121762
41 -0.33308864894363
42 1.69229259780890
43 0.12237814428468
44 -1.64618453121831
 Sym=     26.1
 Ene=       0.7378
 Spin= Alpha
 Occup=    0.000000
1 0.026541585687318
2 -0.62441395319023
3 -0.45133525676718
4 -0.058032120788092
5 -0.000001289046555
6 0.000000000000000
7 1.39049462025536
8 0.000001781317889
9 -0.000000000000000
10 -0.024005421913676
11 -0.53541300458764
12 1.92460613555364
13 0.000001016588218
14 0.084571690661794
15 0.000000000000000
16 -0.000000929770756
17 0.78345786395754
18 -0.000000000000000
19 0.026541585687320
20 -0.62441395319067
21 -0.45133525676634
22 0.058032120788455
23 0.000001289046558
24 0.000000000000000
25 -1.39049462025625
26 -0.000001781317685
27 -0.000000000000000
28 -0.024005421913697
29 -0.53541300458749
30 1.92460613555351
31 -0.000001016588132
32 -0.084571690661182
33 0.000000000000000
34 0.000000929770952
35 -0.78345786395880
36 -0.000000000000000
37 -0.35733051010495
38 -0.55145609901923
39 -0.40053383139992
40 0.37758889976678
41 -0.35733051010510
42 -0.55145609901971
43 -0.40053383139978
44 0.37758889976710
 Sym=     27.1
 Ene=       0.7895
 Spin= Alpha
 Occup=    0.000000
1 -0.000000000000000
2 0.000000000000001
3 0.000000000000004
4 -0.000000000000000
5 -0.000000000000002
6 0.64747868270633
7 -0.000000000000005
8 0.000000000000002
9 -0.58030319974580
10 0.000000000000000
11 0.000000000000000
12 -0.000000000000006
13 0.000000000000000
14 -0.000000000000001
15 0.42076983524510