[Molden Format]
[Atoms] Angs
C     1    6         0.0000000000       -0.6769380253       -0.7827569236
C     2    6         0.0000000000       -0.6769380253        0.7827569236
C     3    6         0.0000000000        0.6769380253        0.7827569236
C     4    6         0.0000000000        0.6769380253       -0.7827569236
H     5    1         0.0000000000       -1.4379809006       -1.5441628360
H     6    1         0.0000000000       -1.4379809006        1.5441628360
H     7    1         0.0000000000        1.4379809006        1.5441628360
H     8    1         0.0000000000        1.4379809006       -1.5441628360
[GTO]
   1 0
 s    6  1.00
  0.3047524900D+04  0.1834737091D-02
  0.4573695200D+03  0.1403732293D-01
  0.1039486800D+03  0.6884262165D-01
  0.2921015500D+02  0.2321844388D+00
  0.9286663000D+01  0.4679413476D+00
  0.3163927000D+01  0.3623119882D+00
 s    3  1.00
  0.7868272300D+01 -0.1193324245D+00
  0.1881288500D+01 -0.1608541561D+00
  0.5442492600D+00  0.1143456443D+01
 s    1  1.00
  0.1687144800D+00  0.1000000000D+01
 p    3  1.00
  0.7868272300D+01  0.6899906693D-01
  0.1881288500D+01  0.3164239597D+00
  0.5442492600D+00  0.7443082892D+00
 p    1  1.00
  0.1687144800D+00  0.1000000000D+01
  
   2 0
 s    6  1.00
  0.3047524900D+04  0.1834737091D-02
  0.4573695200D+03  0.1403732293D-01
  0.1039486800D+03  0.6884262165D-01
  0.2921015500D+02  0.2321844388D+00
  0.9286663000D+01  0.4679413476D+00
  0.3163927000D+01  0.3623119882D+00
 s    3  1.00
  0.7868272300D+01 -0.1193324245D+00
  0.1881288500D+01 -0.1608541561D+00
  0.5442492600D+00  0.1143456443D+01
 s    1  1.00
  0.1687144800D+00  0.1000000000D+01
 p    3  1.00
  0.7868272300D+01  0.6899906693D-01
  0.1881288500D+01  0.3164239597D+00
  0.5442492600D+00  0.7443082892D+00
 p    1  1.00
  0.1687144800D+00  0.1000000000D+01
  
   3 0
 s    6  1.00
  0.3047524900D+04  0.1834737091D-02
  0.4573695200D+03  0.1403732293D-01
  0.1039486800D+03  0.6884262165D-01
  0.2921015500D+02  0.2321844388D+00
  0.9286663000D+01  0.4679413476D+00
  0.3163927000D+01  0.3623119882D+00
 s    3  1.00
  0.7868272300D+01 -0.1193324245D+00
  0.1881288500D+01 -0.1608541561D+00
  0.5442492600D+00  0.1143456443D+01
 s    1  1.00
  0.1687144800D+00  0.1000000000D+01
 p    3  1.00
  0.7868272300D+01  0.6899906693D-01
  0.1881288500D+01  0.3164239597D+00
  0.5442492600D+00  0.7443082892D+00
 p    1  1.00
  0.1687144800D+00  0.1000000000D+01
  
   4 0
 s    6  1.00
  0.3047524900D+04  0.1834737091D-02
  0.4573695200D+03  0.1403732293D-01
  0.1039486800D+03  0.6884262165D-01
  0.2921015500D+02  0.2321844388D+00
  0.9286663000D+01  0.4679413476D+00
  0.3163927000D+01  0.3623119882D+00
 s    3  1.00
  0.7868272300D+01 -0.1193324245D+00
  0.1881288500D+01 -0.1608541561D+00
  0.5442492600D+00  0.1143456443D+01
 s    1  1.00
  0.1687144800D+00  0.1000000000D+01
 p    3  1.00
  0.7868272300D+01  0.6899906693D-01
  0.1881288500D+01  0.3164239597D+00
  0.5442492600D+00  0.7443082892D+00
 p    1  1.00
  0.1687144800D+00  0.1000000000D+01
  
   5 0
 s    3  1.00
  0.1873113700D+02  0.3349460400D-01
  0.2825394400D+01  0.2347269500D+00
  0.6401216900D+00  0.8137573301D+00
 s    1  1.00
  0.1612777600D+00  0.1000000000D+01
  
   6 0
 s    3  1.00
  0.1873113700D+02  0.3349460400D-01
  0.2825394400D+01  0.2347269500D+00
  0.6401216900D+00  0.8137573301D+00
 s    1  1.00
  0.1612777600D+00  0.1000000000D+01
  
   7 0
 s    3  1.00
  0.1873113700D+02  0.3349460400D-01
  0.2825394400D+01  0.2347269500D+00
  0.6401216900D+00  0.8137573301D+00
 s    1  1.00
  0.1612777600D+00  0.1000000000D+01
  
   8 0
 s    3  1.00
  0.1873113700D+02  0.3349460400D-01
  0.2825394400D+01  0.2347269500D+00
  0.6401216900D+00  0.8137573301D+00
 s    1  1.00
  0.1612777600D+00  0.1000000000D+01


[MO]
 Sym=      1.1
 Ene=     -11.2326
 Spin= Alpha
 Occup=    2.000000
1 0.49795001488321
2 0.011544295765214
3 -0.003072319081346
4 0.0
5 0.000084771560370
6 0.000140555896630
7 0.0
8 -0.000070961196317
9 -0.000035125304009
10 0.49795001491781
11 0.011544295766024
12 -0.003072319081371
13 0.0
14 0.000084771560379
15 -0.000140555896645
16 0.0
17 -0.000070961196118
18 0.000035125303971
19 0.49795001492283
20 0.011544295766182
21 -0.003072319081869
22 0.0
23 -0.000084771560382
24 -0.000140555896650
25 0.0
26 0.000070961196334
27 0.000035125304157
28 0.49795001487953
29 0.011544295765088
30 -0.003072319080878
31 0.0
32 -0.000084771560367
33 0.000140555896626
34 0.0
35 0.000070961196111
36 -0.000035125303820
37 -0.000338052248885
38 0.000907216433368
39 -0.000338052248893
40 0.000907216433488
41 -0.000338052248901
42 0.000907216433424
43 -0.000338052248877
44 0.000907216433438
 Sym=      2.1
 Ene=     -11.2322
 Spin= Alpha
 Occup=    2.000000
1 0.49801122064591
2 0.012183862647761
3 -0.006484145244851
4 0.0
5 0.000156547248044
6 0.000255990057397
7 0.0
8 -0.000192036659939
9 -0.001932088509907
10 -0.49801122059987
11 -0.012183862646683
12 0.006484145244485
13 0.0
14 -0.000156547248034
15 0.000255990057383
16 0.0
17 0.000192036659887
18 -0.001932088509895
19 -0.49801122060947
20 -0.012183862646937
21 0.006484145244853
22 0.0
23 0.000156547248042
24 0.000255990057389
25 0.0
26 -0.000192036660040
27 -0.001932088509996
28 0.49801122064132
29 0.012183862647662
30 -0.006484145244965
31 0.0
32 -0.000156547248043
33 0.000255990057395
34 0.0
35 0.000192036659998
36 -0.001932088509988
37 -0.000202306791479
38 0.000644242549070
39 0.000202306791449
40 -0.000644242548997
41 0.000202306791456
42 -0.000644242548967
43 -0.000202306791480
44 0.000644242549036
 Sym=      3.1
 Ene=     -11.2312
 Spin= Alpha
 Occup=    2.000000
1 0.49821634732365
2 0.012541390911755
3 -0.009279783679911
4 0.0
5 0.000290143115372
6 0.000275291410526
7 0.0
8 -0.003335370775049
9 -0.000505226754493
10 0.49821634736959
11 0.012541390912984
12 -0.009279783681775
13 0.0
14 0.000290143115405
15 -0.000275291410558
16 0.0
17 -0.003335370775636
18 0.000505226755020
19 -0.49821634736183
20 -0.012541390912796
21 0.009279783681681
22 0.0
23 0.000290143115402
24 0.000275291410554
25 0.0
26 -0.003335370775635
27 -0.000505226754995
28 -0.49821634733007
29 -0.012541390911912
30 0.009279783679997
31 0.0
32 0.000290143115374
33 -0.000275291410530
34 0.0
35 -0.003335370775050
36 0.000505226754517
37 -0.000220901679788
38 0.000354106332842
39 -0.000220901679804
40 0.000354106332767
41 0.000220901679801
42 -0.000354106332755
43 0.000220901679789
44 -0.000354106332852
 Sym=      4.1
 Ene=     -11.2308
 Spin= Alpha
 Occup=    2.000000
1 0.49833296476068
2 0.013587439224954
3 -0.023156478258973
4 0.0
5 0.000397427936630
6 0.000378983045837
7 0.0
8 -0.007746918706488
9 -0.006699988520903
10 -0.49833296472619
11 -0.013587439224078
12 0.023156478258281
13 0.0
14 -0.000397427936608
15 0.000378983045816
16 0.0
17 0.007746918706230
18 -0.006699988520863
19 0.49833296471934
20 0.013587439223916
21 -0.023156478258220
22 0.0
23 -0.000397427936607
24 -0.000378983045814
25 0.0
26 0.007746918706231
27 0.006699988520857
28 -0.49833296476253
29 -0.013587439224994
30 0.023156478258970
31 0.0
32 0.000397427936631
33 -0.000378983045836
34 0.0
35 -0.007746918706489
36 0.006699988520895
37 -0.000203817997282
38 -0.001218746964288
39 0.000203817997266
40 0.001218746964307
41 -0.000203817997262
42 -0.001218746964323
43 0.000203817997283
44 0.001218746964284
 Sym=      5.1
 Ene=      -1.1554
 Spin= Alpha
 Occup=    2.000000
1 -0.11017700855102
2 0.21671802942577
3 0.12489432144991
4 0.0
5 0.093613884909356
6 0.065879508246483
7 0.0
8 0.010768800278345
9 0.012070233228647
10 -0.11017700855095
11 0.21671802942565
12 0.12489432144839
13 0.0
14 0.093613884909263
15 -0.065879508246422
16 0.0
17 0.010768800277439
18 -0.012070233228139
19 -0.11017700855098
20 0.21671802942566
21 0.12489432144988
22 0.0
23 -0.093613884909342
24 -0.065879508246440
25 0.0
26 -0.010768800278386
27 -0.012070233228701
28 -0.11017700855094
29 0.21671802942567
30 0.12489432144829
31 0.0
32 -0.093613884909297
33 0.065879508246374
34 0.0
35 -0.010768800277459
36 0.012070233228082
37 0.037618581658478
38 0.005266139434877
39 0.037618581658516
40 0.005266139434506
41 0.037618581658432
42 0.005266139434916
43 0.037618581658525
44 0.005266139434498
 Sym=      6.1
 Ene=      -0.9058
 Spin= Alpha
 Occup=    2.000000
1 -0.10667135724659
2 0.21592181266129
3 0.19212635902126
4 0.0
5 0.094857052077018
6 -0.084855355491863
7 0.0
8 -0.000097261250735
9 -0.021574358355307
10 0.10667135724657
11 -0.21592181266125
12 -0.19212635902115
13 0.0
14 -0.094857052077053
15 -0.084855355491787
16 0.0
17 0.000097261250873
18 -0.021574358355399
19 0.10667135724653
20 -0.21592181266117
21 -0.19212635902110
22 0.0
23 0.094857052077174
24 -0.084855355491840
25 0.0
26 -0.000097261250273
27 -0.021574358354703
28 -0.10667135724648
29 0.21592181266106
30 0.19212635902090
31 0.0
32 -0.094857052077176
33 -0.084855355491877
34 0.0
35 0.000097261250379
36 -0.021574358354792
37 0.083703648950146
38 0.019807797229482
39 -0.083703648950079
40 -0.019807797229362
41 -0.083703648950060
42 -0.019807797230414
43 0.083703648950026
44 0.019807797230374
 Sym=      7.1
 Ene=      -0.8177
 Spin= Alpha
 Occup=    2.000000
1 -0.094918436796075
2 0.19206015248166
3 0.20304897779894
4 0.0
5 -0.11288262592470
6 0.036460585038085
7 0.0
8 -0.027301404409517
9 0.008711811800029
10 -0.094918436796107
11 0.19206015248192
12 0.20304897779958
13 0.0
14 -0.11288262592473
15 -0.036460585038061
16 0.0
17 -0.027301404408685
18 -0.008711811800596
19 0.094918436796087
20 -0.19206015248177
21 -0.20304897779967
22 0.0
23 -0.11288262592452
24 0.036460585038164
25 0.0
26 -0.027301404408652
27 0.008711811800790
28 0.094918436796122
29 -0.19206015248178
30 -0.20304897779887
31 0.0
32 -0.11288262592453
33 -0.036460585038133
34 0.0
35 -0.027301404409414
36 -0.008711811799953
37 0.11180474685182
38 0.048674544264892
39 0.11180474685180
40 0.048674544265259
41 -0.11180474685164
42 -0.048674544265240
43 -0.11180474685181
44 -0.048674544264685
 Sym=      8.1
 Ene=      -0.6917
 Spin= Alpha
 Occup=    2.000000
1 -0.072736003835611
2 0.15327350258772
3 0.021158296422137
4 0.0
5 -0.11535183119931
6 -0.10199414454008
7 0.0
8 -0.12351680643424
9 -0.11900876959176
10 0.072736003835263
11 -0.15327350258679
12 -0.021158296420759
13 0.0
14 0.11535183119679
15 -0.10199414453711
16 0.0
17 0.12351680643316
18 -0.11900876959084
19 -0.072736003835858
20 0.15327350258693
21 0.021158296427304
22 0.0
23 0.11535183119911
24 0.10199414453924
25 0.0
26 0.12351680643616
27 0.11900876959084
28 0.072736003835471
29 -0.15327350258665
30 -0.021158296424557
31 0.0
32 -0.11535183119645
33 0.10199414453657
34 0.0
35 -0.12351680643502
36 0.11900876958959
37 0.16109557213320
38 0.054578492560957
39 -0.16109557213169
40 -0.054578492560799
41 0.16109557213319
42 0.054578492558943
43 -0.16109557213156
44 -0.054578492559179
 Sym=      9.1
 Ene=      -0.6902
 Spin= Alpha
 Occup=    2.000000
1 0.021362758514350
2 -0.042984242381892
3 -0.073907784882950
4 0.0
5 0.16448407197919
6 0.17336445170252
7 0.0
8 0.057907782754907
9 0.062353133910635
10 0.021362758515468
11 -0.042984242384558
12 -0.073907784883278
13 0.0
14 0.16448407198096
15 -0.17336445170416
16 0.0
17 0.057907782757230
18 -0.062353133912807
19 0.021362758514431
20 -0.042984242382044
21 -0.073907784883008
22 0.0
23 -0.16448407197920
24 -0.17336445170238
25 0.0
26 -0.057907782754690
27 -0.062353133910484
28 0.021362758515527
29 -0.042984242384638
30 -0.073907784883398
31 0.0
32 -0.16448407198114
33 0.17336445170400
34 0.0
35 -0.057907782756960
36 0.062353133912338
37 -0.14636162527172
38 -0.085568013129566
39 -0.14636162527374
40 -0.085568013128873
41 -0.14636162527172
42 -0.085568013129849
43 -0.14636162527379
44 -0.085568013129462
 Sym=     10.1
 Ene=      -0.5445
 Spin= Alpha
 Occup=    2.000000
1 -0.018031886071507
2 0.036620933043046
3 0.049117008198815
4 0.0
5 0.28328817822855
6 0.067253728033957
7 0.0
8 0.11798227820282
9 0.047908955113173
10 0.018031886071538
11 -0.036620933043153
12 -0.049117008199533
13 0.0
14 -0.28328817822839
15 0.067253728034260
16 0.0
17 -0.11798227820286
18 0.047908955113073
19 0.018031886071555
20 -0.036620933043161
21 -0.049117008198809
22 0.0
23 0.28328817822835
24 0.067253728034751
25 0.0
26 0.11798227820186
27 0.047908955111896
28 -0.018031886071587
29 0.036620933043197
30 0.049117008199239
31 0.0
32 -0.28328817822872
33 0.067253728034340
34 0.0
35 -0.11798227820235
36 0.047908955111661
37 -0.14600556030164
38 -0.11266963486417
39 0.14600556030164
40 0.11266963486450
41 0.14600556030182
42 0.11266963486570
43 -0.14600556030173
44 -0.11266963486565
 Sym=     11.1
 Ene=      -0.5249
 Spin= Alpha
 Occup=    2.000000
1 -0.000590178243271
2 0.010891704366204
3 -0.021454300743552
4 0.0
5 0.23446378128075
6 -0.21565434752334
7 0.0
8 0.094119792592038
9 -0.10523371667360
10 -0.000590178243351
11 0.010891704366370
12 -0.021454300742490
13 0.0
14 0.23446378128118
15 0.21565434752321
16 0.0
17 0.094119792592631
18 0.10523371667325
19 -0.000590178243349
20 0.010891704366375
21 -0.021454300743282
22 0.0
23 -0.23446378128121
24 0.21565434752258
25 0.0
26 -0.094119792592203
27 0.10523371667318
28 -0.000590178243350
29 0.010891704366344
30 -0.021454300742436
31 0.0
32 -0.23446378128090
33 -0.21565434752268
34 0.0
35 -0.094119792592577
36 -0.10523371667276
37 -0.009785506754058
38 -0.014974822159512
39 -0.009785506754280
40 -0.014974822159598
41 -0.009785506754589
42 -0.014974822160001
43 -0.009785506754426
44 -0.014974822159524
 Sym=     12.1
 Ene=      -0.4499
 Spin= Alpha
 Occup=    2.000000
1 -0.027765591045108
2 0.054184050687267
3 0.14402501946634
4 0.0
5 0.028056336703662
6 0.28009311531556
7 0.0
8 0.053917763841617
9 0.18696951317196
10 -0.027765591045096
11 0.054184050687085
12 0.14402501946604
13 0.0
14 0.028056336703805
15 -0.28009311531557
16 0.0
17 0.053917763841125
18 -0.18696951317202
19 0.027765591045090
20 -0.054184050687291
21 -0.14402501946557
22 0.0
23 0.028056336703324
24 0.28009311531634
25 0.0
26 0.053917763840920
27 0.18696951317218
28 0.027765591045083
29 -0.054184050687189
30 -0.14402501946608
31 0.0
32 0.028056336703311
33 -0.28009311531611
34 0.0
35 0.053917763841666
36 -0.18696951317248
37 -0.13481145772334
38 -0.10513816913714
39 -0.13481145772345
40 -0.10513816913720
41 0.13481145772345
42 0.10513816913686
43 0.13481145772343
44 0.10513816913648
 Sym=     13.1
 Ene=      -0.4503
 Spin= Alpha
 Occup=    1.907589
1 0.0
2 0.0
3 0.0
4 -0.27018000801307
5 0.0
6 0.0
7 -0.16897842293229
8 0.0
9 0.0
10 0.0
11 0.0
12 0.0
13 -0.27018000801307
14 0.0
15 0.0
16 -0.16897842293230
17 0.0
18 0.0
19 0.0
20 0.0
21 0.0
22 -0.27018000801307
23 0.0
24 0.0
25 -0.16897842293231
26 0.0
27 0.0
28 0.0
29 0.0
30 0.0
31 -0.27018000801309
32 0.0
33 0.0
34 -0.16897842293225
35 0.0
36 0.0
37 0.0
38 0.0
39 0.0
40 0.0
41 0.0
42 0.0
43 0.0
44 0.0
 Sym=     14.1
 Ene=      -0.2364
 Spin= Alpha
 Occup=    1.784718
1 0.0
2 0.0
3 0.0
4 0.30577387740424
5 0.0
6 0.0
7 0.27101316235139
8 0.0
9 0.0
10 0.0
11 0.0
12 0.0
13 -0.30577387740427
14 0.0
15 0.0
16 -0.27101316235135
17 0.0
18 0.0
19 0.0
20 0.0
21 0.0
22 -0.30577387740428
23 0.0
24 0.0
25 -0.27101316235131
26 0.0
27 0.0
28 0.0
29 0.0
30 0.0
31 0.30577387740427
32 0.0
33 0.0
34 0.27101316235132
35 0.0
36 0.0
37 0.0
38 0.0
39 0.0
40 0.0
41 0.0
42 0.0
43 0.0
44 0.0
 Sym=     15.1
 Ene=       0.0957
 Spin= Alpha
 Occup=    0.215361
1 0.0
2 0.0
3 0.0
4 0.36434179738331
5 0.0
6 0.0
7 0.26185363447407
8 0.0
9 0.0
10 0.0
11 0.0
12 0.0
13 0.36434179738332
14 0.0
15 0.0
16 0.26185363447403
17 0.0
18 0.0
19 0.0
20 0.0
21 0.0
22 -0.36434179738325
23 0.0
24 0.0
25 -0.26185363447409
26 0.0
27 0.0
28 0.0
29 0.0
30 0.0
31 -0.36434179738331
32 0.0
33 0.0
34 -0.26185363447405
35 0.0
36 0.0
37 0.0
38 0.0
39 0.0
40 0.0
41 0.0
42 0.0
43 0.0
44 0.0
 Sym=     16.1
 Ene=       0.3117
 Spin= Alpha
 Occup=    0.092331
1 0.0
2 0.0
3 0.0
4 0.43140245732399
5 0.0
6 0.0
7 0.34660771993602
8 0.0
9 0.0
10 0.0
11 0.0
12 0.0
13 -0.43140245732404
14 0.0
15 0.0
16 -0.34660771993601
17 0.0
18 0.0
19 0.0
20 0.0
21 0.0
22 0.43140245732393
23 0.0
24 0.0
25 0.34660771993612
26 0.0
27 0.0
28 0.0
29 0.0
30 0.0
31 -0.43140245732398
32 0.0
33 0.0
34 -0.34660771993604
35 0.0
36 0.0
37 0.0
38 0.0
39 0.0
40 0.0
41 0.0
42 0.0
43 0.0
44 0.0
 Sym=     17.1
 Ene=       0.2762
 Spin= Alpha
 Occup=   -0.000000
1 0.038457716749480
2 -0.028693655480534
3 -0.83645418931248
4 0.0
5 0.10770790202324
6 0.11004881182395
7 0.0
8 0.34486732922011
9 0.30822419792695
10 0.038457716749065
11 -0.028693655479779
12 -0.83645418930950
13 0.0
14 0.10770790202271
15 -0.11004881182447
16 0.0
17 0.34486732921366
18 -0.30822419792417
19 0.038457716749081
20 -0.028693655479986
21 -0.83645418930604
22 0.0
23 -0.10770790202261
24 -0.11004881182394
25 0.0
26 -0.34486732921659
27 -0.30822419792612
28 0.038457716749295
29 -0.028693655480090
30 -0.83645418931284
31 0.0
32 -0.10770790202302
33 0.11004881182370
34 0.0
35 -0.34486732921470
36 0.30822419792146
37 0.046341229559886
38 1.08565400092144
39 0.046341229559498
40 1.08565400091228
41 0.046341229559986
42 1.08565400091504
43 0.046341229559576
44 1.08565400091285
 Sym=     18.1
 Ene=       0.2812
 Spin= Alpha
 Occup=   -0.000000
1 -0.075077567304876
2 0.093410676676232
3 1.15534156176729
4 0.0
5 -0.10759434168157
6 0.11205171169988
7 0.0
8 -0.47587125515569
9 0.36125893446914
10 0.075077567304965
11 -0.093410676676229
12 -1.15534156176940
13 0.0
14 0.10759434168204
15 0.11205171169966
16 0.0
17 0.47587125515724
18 0.36125893446856
19 0.075077567304745
20 -0.093410676676123
21 -1.15534156176609
22 0.0
23 -0.10759434168167
24 0.11205171169958
25 0.0
26 -0.47587125515858
27 0.36125893446601
28 -0.075077567304507
29 0.093410676675964
30 1.15534156176093
31 0.0
32 0.10759434168115
33 0.11205171170025
34 0.0
35 0.47587125515716
36 0.36125893446810
37 0.009065861711458
38 -0.65922831472114
39 -0.009065861711202
40 0.65922831472453
41 -0.009065861710898
42 0.65922831472616
43 0.009065861711058
44 -0.65922831472026
 Sym=     19.1
 Ene=       0.2895
 Spin= Alpha
 Occup=   -0.000000
1 0.059969511011396
2 -0.16695849268186
3 0.56181062735595
4 0.0
5 0.071868191141553
6 0.009409270290436
7 0.0
8 1.22175642240557
9 1.05257065243786
10 -0.059969511011447
11 0.16695849268184
12 -0.56181062735396
13 0.0
14 -0.071868191141664
15 0.009409270290428
16 0.0
17 -1.22175642240653
18 1.05257065243825
19 0.059969511011491
20 -0.16695849268187
21 0.56181062735573
22 0.0
23 -0.071868191141480
24 -0.009409270289926
25 0.0
26 -1.22175642240492
27 -1.05257065243481
28 -0.059969511011665
29 0.16695849268206
30 -0.56181062735183
31 0.0
32 0.071868191141666
33 -0.009409270290220
34 0.0
35 1.22175642240638
36 -1.05257065243645
37 0.034688332289052
38 1.51373081091854
39 -0.034688332289458
40 -1.51373081092146
41 0.034688332288884
42 1.51373081091531
43 -0.034688332289251
44 -1.51373081092061
 Sym=     20.1
 Ene=       0.3207
 Spin= Alpha
 Occup=   -0.000000
1 0.061064387151546
2 -0.068364269821315
3 -1.23691850475434
4 0.0
5 0.026598751672667
6 0.12081133447024
7 0.0
8 0.038691199319050
9 0.66920131738620
10 0.061064387151751
11 -0.068364269821420
12 -1.23691850475757
13 0.0
14 0.026598751672864
15 -0.12081133446995
16 0.0
17 0.038691199319322
18 -0.66920131738506
19 -0.061064387151730
20 0.068364269821354
21 1.23691850475795
22 0.0
23 0.026598751672928
24 0.12081133447060
25 0.0
26 0.038691199319886
27 0.66920131738695
28 -0.061064387151730
29 0.068364269821445
30 1.23691850475757
31 0.0
32 0.026598751672933
33 -0.12081133447031
34 0.0
35 0.038691199320174
36 -0.66920131738552
37 -0.024311627257406
38 1.14615180875517
39 -0.024311627257457
40 1.14615180875599
41 0.024311627257299
42 -1.14615180875842
43 0.024311627257351
44 -1.14615180875715
 Sym=     21.1
 Ene=       0.3470
 Spin= Alpha
 Occup=   -0.000000
1 -0.017886684145415
2 0.011033198048832
3 0.007499073702129
4 0.0
5 0.10472086577663
6 0.19712495389682
7 0.0
8 0.42520398805828
9 1.02425386963386
10 0.017886684145386
11 -0.011033198048766
12 -0.007499073701629
13 0.0
14 -0.10472086577678
15 0.19712495389704
16 0.0
17 -0.42520398805955
18 1.02425386963476
19 0.017886684145187
20 -0.011033198048439
21 -0.007499073701386
22 0.0
23 0.10472086577693
24 0.19712495389693
25 0.0
26 0.42520398806045
27 1.02425386963556
28 -0.017886684145197
29 0.011033198048440
30 0.007499073701689
31 0.0
32 -0.10472086577696
33 0.19712495389706
34 0.0
35 -0.42520398806138
36 1.02425386963621
37 0.000475327195640
38 1.16977855224043
39 -0.000475327195684
40 -1.16977855224253
41 -0.000475327195627
42 -1.16977855224384
43 0.000475327195609
44 1.16977855224479
 Sym=     22.1
 Ene=       0.4266
 Spin= Alpha
 Occup=   -0.000000
1 -0.051592591460914
2 0.035775842797289
3 1.48226567369938
4 0.0
5 0.12611983245797
6 0.090907835536767
7 0.0
8 1.70988031543701
9 0.28114290894253
10 -0.051592591460943
11 0.035775842797019
12 1.48226567370146
13 0.0
14 0.12611983245773
15 -0.090907835536670
16 0.0
17 1.70988031543752
18 -0.28114290894367
19 0.051592591460912
20 -0.035775842796983
21 -1.48226567370101
22 0.0
23 0.12611983245820
24 0.090907835536857
25 0.0
26 1.70988031543749
27 0.28114290894417
28 0.051592591460881
29 -0.035775842797017
30 -1.48226567369945
31 0.0
32 0.12611983245810
33 -0.090907835536591
34 0.0
35 1.70988031543676
36 -0.28114290894239
37 0.012997590624552
38 0.87577596163716
39 0.012997590624618
40 0.87577596163727
41 -0.012997590624449
42 -0.87577596163834
43 -0.012997590624515
44 -0.87577596163712
 Sym=     23.1
 Ene=       0.4930
 Spin= Alpha
 Occup=   -0.000000
1 -0.015912541852314
2 0.008835525721152
3 0.15538100401401
4 0.0
5 -0.13947155110119
6 0.22124603092365
7 0.0
8 -0.77104219229288
9 1.56521595249351
10 0.015912541852283
11 -0.008835525721106
12 -0.15538100401327
13 0.0
14 0.13947155110123
15 0.22124603092357
16 0.0
17 0.77104219229360
18 1.56521595249339
19 -0.015912541852312
20 0.008835525721254
21 0.15538100401358
22 0.0
23 0.13947155110129
24 -0.22124603092348
25 0.0
26 0.77104219229362
27 -1.56521595249387
28 0.015912541852340
29 -0.008835525721219
30 -0.15538100401435
31 0.0
32 -0.13947155110127
33 -0.22124603092365
34 0.0
35 -0.77104219229283
36 -1.56521595249394
37 -0.045507231530020
38 0.38711127775530
39 0.045507231529986
40 -0.38711127775500
41 -0.045507231529858
42 0.38711127775500
43 0.045507231529851
44 -0.38711127775532
 Sym=     24.1
 Ene=       0.6897
 Spin= Alpha
 Occup=   -0.000000
1 -0.007896438242608
2 -0.13245008467223
3 -0.012731046465327
4 0.0
5 -0.37629614938087
6 0.25031839857915
7 0.0
8 0.51876599647602
9 -0.24359411027026
10 -0.007896438242774
11 -0.13245008467227
12 -0.012731046456356
13 0.0
14 -0.37629614938068
15 -0.25031839857904
16 0.0
17 0.51876599648149
18 0.24359411026644
19 -0.007896438242649
20 -0.13245008467224
21 -0.012731046464065
22 0.0
23 0.37629614938045
24 -0.25031839857883
25 0.0
26 -0.51876599647654
27 0.24359411027007
28 -0.007896438242852
29 -0.13245008467233
30 -0.012731046455218
31 0.0
32 0.37629614938057
33 0.25031839857914
34 0.0
35 -0.51876599648240
36 -0.24359411026658
37 0.025234088219445
38 0.056657200135403
39 0.025234088219303
40 0.056657200137780
41 0.025234088219426
42 0.056657200135504
43 0.025234088219088
44 0.056657200138014
 Sym=     25.1
 Ene=       0.7223
 Spin= Alpha
 Occup=   -0.000000
1 -0.13135194707018
2 0.030129341488963
3 5.68803797770339
4 0.0
5 0.065850024802661
6 0.11398999747049
7 0.0
8 3.64136714676955
9 2.37358861488340
10 0.13135194707019
11 -0.030129341487792
12 -5.68803797770555
13 0.0
14 -0.065850024803400
15 0.11398999747014
16 0.0
17 -3.64136714676913
18 2.37358861488386
19 -0.13135194707015
20 0.030129341489212
21 5.68803797770328
22 0.0
23 -0.065850024802796
24 -0.11398999747058
25 0.0
26 -3.64136714676947
27 -2.37358861488272
28 0.13135194707019
29 -0.030129341489288
30 -5.68803797770309
31 0.0
32 0.065850024803311
33 -0.11398999747055
34 0.0
35 3.64136714676800
36 -2.37358861488258
37 -0.21112026866964
38 1.67274339535916
39 0.21112026867015
40 -1.67274339535907
41 -0.21112026866951
42 1.67274339535880
43 0.21112026866972
44 -1.67274339535827
 Sym=     26.1
 Ene=       0.7464
 Spin= Alpha
 Occup=   -0.000000
1 0.002283547843222
2 -0.57757191138125
3 0.74661997781348
4 0.0
5 0.065705611347270
6 0.043636154851535
7 0.0
8 -0.23165254215959
9 -0.22427925450801
10 0.002283547843359
11 -0.57757191138126
12 0.74661997780915
13 0.0
14 0.065705611347389
15 -0.043636154850915
16 0.0
17 -0.23165254216273
18 0.22427925450921
19 0.002283547843308
20 -0.57757191138092
21 0.74661997781209
22 0.0
23 -0.065705611347150
24 -0.043636154851221
25 0.0
26 0.23165254216016
27 0.22427925450747
28 0.002283547843375
29 -0.57757191138117
30 0.74661997780797
31 0.0
32 -0.065705611346836
33 0.043636154851412
34 0.0
35 0.23165254216305
36 -0.22427925450949
37 -0.39663356433359
38 -0.084925574387199
39 -0.39663356433298
40 -0.084925574388600
41 -0.39663356433312
42 -0.084925574387217
43 -0.39663356433303
44 -0.084925574388654
 Sym=     27.1
 Ene=       0.7772
 Spin= Alpha
 Occup=   -0.000000
1 0.033318149135653
2 0.17077144288032
3 -0.066935013769127
4 0.0
5 0.25707412512101
6 -0.41223763937432
7 0.0
8 -0.26331540930881
9 0.39665647505930
10 -0.033318149135644
11 -0.17077144288096
12 0.066935013769837
13 0.0
14 -0.25707412512126
15 -0.41223763937457
16 0.0
17 0.26331540930901
18 0.39665647505957
19 -0.033318149135672
20 -0.17077144288110
21 0.066935013772197
22 0.0
23 0.25707412512109
24 -0.41223763937445
25 0.0
26 -0.26331540930986
27 0.39665647505783
28 0.033318149135661
29 0.17077144288046
30 -0.066935013771535
31 0.0
32 -0.25707412512107
33 -0.41223763937439
34 0.0
35 0.26331540930996
36 0.39665647505752
37 0.26628604592000
38 -0.054682645921233
39 -0.26628604592024
40 0.054682645921193
41 -0.26628604592042
42 0.054682645921855
43 0.26628604591998
44 -0.054682645921888
 Sym=     28.1
 Ene=       0.7909
 Spin= Alpha
 Occup=   -0.000000
1 0.0
2 0.0
3 0.0
4 0.53621196106231
5 0.0
6 0.0
7 -0.39278513671895
8 0.0
9 0.0
10 0.0
11 0.0
12 0.0
13 0.53621196106171
14 0.0
15 0.0
16 -0.39278513671863
17 0.0
18 0.0
19 0.0
20 0.0
21 0.0
22 0.53621196106045
23 0.0
24 0.0
25 -0.39278513671647
26 0.0
27 0.0
28 0.0
29 0.0
30 0.0
31 0.53621196106139
32 0.0
33 0.0
34 -0.39278513671793
35 0.0
36 0.0
37 0.0
38 0.0
39 0.0
40 0.0
41 0.0
42 0.0
43 0.0
44 0.0
 Sym=     29.1
 Ene=       0.8266
 Spin= Alpha
 Occup=   -0.000000
1 0.0
2 0.0
3 0.0
4 -0.52796550696051
5 0.0
6 0.0
7 0.63202598599072
8 0.0
9 0.0
10 0.0
11 0.0
12 0.0
13 0.52796550696249
14 0.0
15 0.0
16 -0.63202598599301
17 0.0
18 0.0
19 0.0
20 0.0
21 0.0
22 0.52796550696048
23 0.0
24 0.0
25 -0.63202598598909
26 0.0
27 0.0
28 0.0
29 0.0
30 0.0
31 -0.52796550696091
32 0.0
33 0.0
34 0.63202598599028
35 0.0
36 0.0
37 0.0
38 0.0
39 0.0
40 0.0
41 0.0
42 0.0
43 0.0
44 0.0
 Sym=     30.1
 Ene=       0.8387
 Spin= Alpha
 Occup=   -0.000000
1 0.0
2 0.0
3 0.0
4 -0.50934213303849
5 0.0
6 0.0
7 0.71919862342211
8 0.0
9 0.0
10 0.0
11 0.0
12 0.0
13 -0.50934213303667
14 0.0
15 0.0
16 0.71919862341917
17 0.0
18 0.0
19 0.0
20 0.0
21 0.0
22 0.50934213303911
23 0.0
24 0.0
25 -0.71919862342154
26 0.0
27 0.0
28 0.0
29 0.0
30 0.0
31 0.50934213303838
32 0.0
33 0.0
34 -0.71919862342146
35 0.0
36 0.0
37 0.0
38 0.0
39 0.0
40 0.0
41 0.0
42 0.0
43 0.0
44 0.0
 Sym=     31.1
 Ene=       0.8770
 Spin= Alpha
 Occup=   -0.000000
1 0.0
2 0.0
3 0.0
4 -0.47536955904162
5 0.0
6 0.0
7 1.19886040093375
8 0.0
9 0.0
10 0.0
11 0.0
12 0.0
13 0.47536955904198
14 0.0
15 0.0
16 -1.19886040093442
17 0.0
18 0.0
19 0.0
20 0.0
21 0.0
22 -0.47536955904316
23 0.0
24 0.0
25 1.19886040093574
26 0.0
27 0.0
28 0.0
29 0.0
30 0.0
31 0.47536955904231
32 0.0
33 0.0
34 -1.19886040093472
35 0.0
36 0.0
37 0.0
38 0.0
39 0.0
40 0.0
41 0.0
42 0.0
43 0.0
44 0.0
 Sym=     32.1
 Ene=       0.9042
 Spin= Alpha
 Occup=   -0.000000
1 -0.047288407252102
2 -0.19790451074388
3 0.67319321172481
4 0.0
5 0.43959561276138
6 -0.26239606462992
7 0.0
8 -0.055933130383754
9 0.080943525172279
10 -0.047288407252066
11 -0.19790451074426
12 0.67319321172535
13 0.0
14 0.43959561276114
15 0.26239606462980
16 0.0
17 -0.055933130383736
18 -0.080943525172090
19 0.047288407252053
20 0.19790451074428
21 -0.67319321172560
22 0.0
23 0.43959561276141
24 -0.26239606462997
25 0.0
26 -0.055933130384056
27 0.080943525172199
28 0.047288407252104
29 0.19790451074415
30 -0.67319321172551
31 0.0
32 0.43959561276160
33 0.26239606462972
34 0.0
35 -0.055933130384405
36 -0.080943525171830
37 -0.34131470078768
38 0.075436941375180
39 -0.34131470078743
40 0.075436941374752
41 0.34131470078776
42 -0.075436941374890
43 0.34131470078800
44 -0.075436941374810
 Sym=     33.1
 Ene=       1.0499
 Spin= Alpha
 Occup=   -0.000000
1 0.044354319408612
2 0.44367621383415
3 -0.99903321041301
4 0.0
5 0.28528712750266
6 0.43085074502608
7 0.0
8 -0.95798654582961
9 -1.65715878587372
10 -0.044354319408568
11 -0.44367621383299
12 0.99903321041518
13 0.0
14 -0.28528712750197
15 0.43085074502472
16 0.0
17 0.95798654582833
18 -1.65715878587172
19 -0.044354319408559
20 -0.44367621383195
21 0.99903321040450
22 0.0
23 0.28528712750203
24 0.43085074502215
25 0.0
26 -0.95798654582432
27 -1.65715878586023
28 0.044354319408621
29 0.44367621383394
30 -0.99903321040440
31 0.0
32 -0.28528712750292
33 0.43085074502388
34 0.0
35 0.95798654582684
36 -1.65715878586285
37 0.32528292927471
38 -1.16289020234960
39 -0.32528292927491
40 1.16289020234787
41 -0.32528292927503
42 1.16289020234382
43 0.32528292927488
44 -1.16289020234597
 Sym=     34.1
 Ene=       1.0605
 Spin= Alpha
 Occup=   -0.000000
1 -0.012266556502494
2 -0.54090413777656
3 -0.24946856688135
4 0.0
5 -0.21091176282822
6 -0.45486129441015
7 0.0
8 0.54317102183379
9 0.67342637394761
10 -0.012266556502655
11 -0.54090413777828
12 -0.24946856687592
13 0.0
14 -0.21091176282917
15 0.45486129441178
16 0.0
17 0.54317102183748
18 -0.67342637395410
19 -0.012266556502633
20 -0.54090413777811
21 -0.24946856687786
22 0.0
23 0.21091176282871
24 0.45486129441131
25 0.0
26 -0.54317102183570
27 -0.67342637395203
28 -0.012266556502510
29 -0.54090413777680
30 -0.24946856687945
31 0.0
32 0.21091176282805
33 -0.45486129441010
34 0.0
35 -0.54317102183375