[Molden Format]
[Atoms] Angs
H     1    1         0.0000000000        0.0000000000        0.0000000000
H     2    1         0.0000000000        0.0000000000        1.0000000000
H     3    1         1.5000000000        0.0000000000        0.0000000000
H     4    1         1.5000000000        0.0000000000        1.0000000000
[GTO]
   1 0
 s    3  1.00
  0.3425250900D+01  0.1543289707D+00
  0.6239137300D+00  0.5353281424D+00
  0.1688554000D+00  0.4446345420D+00
  
   2 0
 s    3  1.00
  0.3425250900D+01  0.1543289707D+00
  0.6239137300D+00  0.5353281424D+00
  0.1688554000D+00  0.4446345420D+00
  
   3 0
 s    3  1.00
  0.3425250900D+01  0.1543289707D+00
  0.6239137300D+00  0.5353281424D+00
  0.1688554000D+00  0.4446345420D+00
  
   4 0
 s    3  1.00
  0.3425250900D+01  0.1543289707D+00
  0.6239137300D+00  0.5353281424D+00
  0.1688554000D+00  0.4446345420D+00


[MO]
 Sym=      1.1
 Ene=      -0.4693
 Spin= Alpha
 Occup=    2.000000
1 0.59616670944655
2 0.59616670944655
3 -0.085411349614731
4 -0.085411349614730
 Sym=      2.1
 Ene=      -0.4693
 Spin= Alpha
 Occup=    2.000000
1 -0.085411349614731
2 -0.085411349614732
3 0.59616670944655
4 0.59616670944655
 Sym=      3.1
 Ene=       0.4771
 Spin= Alpha
 Occup=    0.000000
1 1.00969375179233
2 -1.00969375179233
3 -0.094468292818650
4 0.094468292818649
 Sym=      4.1
 Ene=       0.4771
 Spin= Alpha
 Occup=    0.000000
1 -0.094468292818650
2 0.094468292818651
3 1.00969375179233
4 -1.00969375179233
