[Molden Format]
[Atoms] Angs
H     1    1         0.0000000000        0.0000000000        0.0000000000
H     2    1         0.0000000000        0.0000000000        1.0000000000
H     3    1         2.5000000000        0.0000000000        0.0000000000
H     4    1         2.5000000000        0.0000000000        1.0000000000
[GTO]
   1 0
 s    3  1.00
  0.3425250900D+01  0.1543289707D+00
  0.6239137300D+00  0.5353281424D+00
  0.1688554000D+00  0.4446345420D+00
  
   2 0
 s    3  1.00
  0.3425250900D+01  0.1543289707D+00
  0.6239137300D+00  0.5353281424D+00
  0.1688554000D+00  0.4446345420D+00
  
   3 0
 s    3  1.00
  0.3425250900D+01  0.1543289707D+00
  0.6239137300D+00  0.5353281424D+00
  0.1688554000D+00  0.4446345420D+00
  
   4 0
 s    3  1.00
  0.3425250900D+01  0.1543289707D+00
  0.6239137300D+00  0.5353281424D+00
  0.1688554000D+00  0.4446345420D+00


[MO]
 Sym=      1.1
 Ene=      -0.4819
 Spin= Alpha
 Occup=    2.000000
1 0.57870787951114
2 0.57870787951114
3 -0.016199626611401
4 -0.016199626611401
 Sym=      2.1
 Ene=      -0.4819
 Spin= Alpha
 Occup=    2.000000
1 -0.016199626611402
2 -0.016199626611401
3 0.57870787951114
4 0.57870787951114
 Sym=      4.1
 Ene=       0.4599
 Spin= Alpha
 Occup=    0.000000
1 -0.015169763138264
2 0.015169763138265
3 0.99684934653443
4 -0.99684934653443
 Sym=      3.1
 Ene=       0.4599
 Spin= Alpha
 Occup=    0.000000
1 0.99684934653443
2 -0.99684934653443
3 -0.015169763138251
4 0.015169763138251
