[Molden Format]
[Atoms] Angs
H     1    1         0.0000000000        0.0000000000        0.0000000000
H     2    1         0.0000000000        0.0000000000        1.0000000000
H     3    1         3.0000000000        0.0000000000        0.0000000000
H     4    1         3.0000000000        0.0000000000        1.0000000000
[GTO]
   1 0
 s    3  1.00
  0.3425250900D+01  0.1543289707D+00
  0.6239137300D+00  0.5353281424D+00
  0.1688554000D+00  0.4446345420D+00
  
   2 0
 s    3  1.00
  0.3425250900D+01  0.1543289707D+00
  0.6239137300D+00  0.5353281424D+00
  0.1688554000D+00  0.4446345420D+00
  
   3 0
 s    3  1.00
  0.3425250900D+01  0.1543289707D+00
  0.6239137300D+00  0.5353281424D+00
  0.1688554000D+00  0.4446345420D+00
  
   4 0
 s    3  1.00
  0.3425250900D+01  0.1543289707D+00
  0.6239137300D+00  0.5353281424D+00
  0.1688554000D+00  0.4446345420D+00


[MO]
 Sym=      2.1
 Ene=      -0.4831
 Spin= Alpha
 Occup=    2.000000
1 0.006017475428459
2 0.006017475428460
3 -0.57812192688603
4 -0.57812192688603
 Sym=      1.1
 Ene=      -0.4831
 Spin= Alpha
 Occup=    2.000000
1 0.57812192688604
2 0.57812192688603
3 -0.006017475428463
4 -0.006017475428463
 Sym=      4.1
 Ene=       0.4587
 Spin= Alpha
 Occup=    0.000000
1 0.005320038052125
2 -0.005320038052125
3 -0.99654572040080
4 0.99654572040080
 Sym=      3.1
 Ene=       0.4587
 Spin= Alpha
 Occup=    0.000000
1 0.99654572040080
2 -0.99654572040080
3 -0.005320038052171
4 0.005320038052171
