[Molden Format]
[Atoms] Angs
H     1    1         0.0000000000        0.0000000000        0.0000000000
H     2    1         0.0000000000        0.0000000000        1.0000000000
H     3    1         1.0000000000        0.0000000000        0.0000000000
H     4    1         1.0000000000        0.0000000000        1.0000000000
[GTO]
   1 0
 s    3  1.00
  0.3425250900D+01  0.1543289707D+00
  0.6239137300D+00  0.5353281424D+00
  0.1688554000D+00  0.4446345420D+00
  
   2 0
 s    3  1.00
  0.3425250900D+01  0.1543289707D+00
  0.6239137300D+00  0.5353281424D+00
  0.1688554000D+00  0.4446345420D+00
  
   3 0
 s    3  1.00
  0.3425250900D+01  0.1543289707D+00
  0.6239137300D+00  0.5353281424D+00
  0.1688554000D+00  0.4446345420D+00
  
   4 0
 s    3  1.00
  0.3425250900D+01  0.1543289707D+00
  0.6239137300D+00  0.5353281424D+00
  0.1688554000D+00  0.4446345420D+00


[MO]
 Sym=      1.1
 Ene=      -0.4423
 Spin= Alpha
 Occup=    2.000000
1 0.65356188341617
2 0.65355963560085
3 -0.18556107162189
4 -0.18556373878796
 Sym=      2.1
 Ene=      -0.4423
 Spin= Alpha
 Occup=    2.000000
1 -0.18556373878796
2 -0.18556107162189
3 0.65355963560085
4 0.65356188341617
 Sym=      4.1
 Ene=       0.5236
 Spin= Alpha
 Occup=    0.000000
1 0.22926293635579
2 -0.22926040324532
3 -1.06838602544946
4 1.06838364357853
 Sym=      3.1
 Ene=       0.5236
 Spin= Alpha
 Occup=    0.000000
1 -1.06838364357853
2 1.06838602544946
3 0.22926040324532
4 -0.22926293635579
