[Molden Format]
[Atoms] Angs
H     1    1         0.0000000000        0.0000000000        0.0000000000
H     2    1         0.0000000000        0.0000000000        1.0000000000
H     3    1         2.0000000000        0.0000000000        0.0000000000
H     4    1         2.0000000000        0.0000000000        1.0000000000
[GTO]
   1 0
 s    3  1.00
  0.3425250900D+01  0.1543289707D+00
  0.6239137300D+00  0.5353281424D+00
  0.1688554000D+00  0.4446345420D+00
  
   2 0
 s    3  1.00
  0.3425250900D+01  0.1543289707D+00
  0.6239137300D+00  0.5353281424D+00
  0.1688554000D+00  0.4446345420D+00
  
   3 0
 s    3  1.00
  0.3425250900D+01  0.1543289707D+00
  0.6239137300D+00  0.5353281424D+00
  0.1688554000D+00  0.4446345420D+00
  
   4 0
 s    3  1.00
  0.3425250900D+01  0.1543289707D+00
  0.6239137300D+00  0.5353281424D+00
  0.1688554000D+00  0.4446345420D+00


[MO]
 Sym=      2.1
 Ene=      -0.4786
 Spin= Alpha
 Occup=    2.000000
1 0.038886956447288
2 0.038886956447289
3 -0.58191583783297
4 -0.58191583783297
 Sym=      1.1
 Ene=      -0.4786
 Spin= Alpha
 Occup=    2.000000
1 0.58191583783297
2 0.58191583783297
3 -0.038886956447289
4 -0.038886956447290
 Sym=      3.1
 Ene=       0.4638
 Spin= Alpha
 Occup=    0.000000
1 0.99879153148220
2 -0.99879153148220
3 -0.039052818880140
4 0.039052818880140
 Sym=      4.1
 Ene=       0.4638
 Spin= Alpha
 Occup=    0.000000
1 -0.039052818880145
2 0.039052818880145
3 0.99879153148220
4 -0.99879153148220
