[Molden Format]
[Atoms] Angs
H     1    1         0.0000000000        0.0000000000        0.0000000000
H     2    1         0.0000000000        0.0000000000        1.0000000000
H     3    1         3.5000000000        0.0000000000        0.0000000000
H     4    1         3.5000000000        0.0000000000        1.0000000000
[GTO]
   1 0
 s    3  1.00
  0.3425250900D+01  0.1543289707D+00
  0.6239137300D+00  0.5353281424D+00
  0.1688554000D+00  0.4446345420D+00
  
   2 0
 s    3  1.00
  0.3425250900D+01  0.1543289707D+00
  0.6239137300D+00  0.5353281424D+00
  0.1688554000D+00  0.4446345420D+00
  
   3 0
 s    3  1.00
  0.3425250900D+01  0.1543289707D+00
  0.6239137300D+00  0.5353281424D+00
  0.1688554000D+00  0.4446345420D+00
  
   4 0
 s    3  1.00
  0.3425250900D+01  0.1543289707D+00
  0.6239137300D+00  0.5353281424D+00
  0.1688554000D+00  0.4446345420D+00


[MO]
 Sym=      2.1
 Ene=      -0.4837
 Spin= Alpha
 Occup=    2.000000
1 -0.001993511422052
2 -0.001993511422052
3 0.57803829464788
4 0.57803829464788
 Sym=      1.1
 Ene=      -0.4837
 Spin= Alpha
 Occup=    2.000000
1 0.57803829464788
2 0.57803829464788
3 -0.001993511422040
4 -0.001993511422040
 Sym=      3.1
 Ene=       0.4582
 Spin= Alpha
 Occup=    0.000000
1 0.99650734763112
2 -0.99650734763112
3 -0.001675932944672
4 0.001675932944673
 Sym=      4.1
 Ene=       0.4582
 Spin= Alpha
 Occup=    0.000000
1 -0.001675932944779
2 0.001675932944778
3 0.99650734763112
4 -0.99650734763112
