[Molden Format]
[Atoms] Angs
O     1    8         0.0000000000        0.0000000000        0.0490113300
H     2    1         0.0000000000        0.6746002500       -0.4681100300
H     3    1         0.0000000000       -0.6746002500       -0.4681100300
[GTO]
   1 0
 s    3  1.00
  0.1307093200D+03  0.1543289687D+00
  0.2380886100D+02  0.5353281356D+00
  0.6443608300D+01  0.4446345363D+00
 s    3  1.00
  0.5033151300D+01 -0.9996722866D-01
  0.1169596100D+01  0.3995128246D+00
  0.3803890000D+00  0.7001154606D+00
 p    3  1.00
  0.5033151300D+01  0.1559162685D+00
  0.1169596100D+01  0.6076837141D+00
  0.3803890000D+00  0.3919573862D+00
  
   2 0
 s    3  1.00
  0.3425250900D+01  0.1543289707D+00
  0.6239137300D+00  0.5353281424D+00
  0.1688554000D+00  0.4446345420D+00
  
   3 0
 s    3  1.00
  0.3425250900D+01  0.1543289707D+00
  0.6239137300D+00  0.5353281424D+00
  0.1688554000D+00  0.4446345420D+00


[MO]
 Sym=      1.1
 Ene=     -20.2332
 Spin= Alpha
 Occup=    2.000000
1 0.99384793405355
2 0.029284089137865
3 0.000000000000000
4 0.000000000000000
5 -0.005516710207779
6 -0.007349814723504
7 -0.007349814723504
 Sym=      2.1
 Ene=      -1.3321
 Spin= Alpha
 Occup=    2.000000
1 -0.22964322662291
2 0.79717377386724
3 0.000000000000000
4 0.000000000000000
5 -0.16995163168225
6 0.16173686879473
7 0.16173686879473
 Sym=      3.1
 Ene=      -0.6799
 Spin= Alpha
 Occup=    2.000000
1 -0.000000000000000
2 0.000000000000001
3 0.000000000000000
4 0.61426084257925
5 0.000000000000000
6 0.43581227641624
7 -0.43581227641624
 Sym=      4.1
 Ene=      -0.4658
 Spin= Alpha
 Occup=    2.000000
1 -0.10679294504857
2 0.55960189606037
3 0.000000000000001
4 -0.000000000000000
5 0.80411434253613
6 -0.23050965856611
7 -0.23050965856611
 Sym=      5.1
 Ene=      -0.4026
 Spin= Alpha
 Occup=    2.000000
1 0.000000000000000
2 -0.000000000000001
3 1.00000000000000
4 0.000000000000000
5 -0.000000000000000
6 0.000000000000000
7 0.000000000000001
 Sym=      6.1
 Ene=       0.8003
 Spin= Alpha
 Occup=    0.000000
1 -0.10397393983589
2 0.77827079859790
3 0.000000000000000
4 -0.75209630586718
5 -0.52909426146067
6 0.047515752164068
7 -1.30505936626002
 Sym=      7.1
 Ene=       0.8003
 Spin= Alpha
 Occup=    0.000000
1 0.10397393983589
2 -0.77827079859789
3 -0.000000000000000
4 -0.75209630586719
5 0.52909426146067
6 1.30505936626002
7 -0.047515752164076
