[Molden Format]
[Atoms] Angs
O     1    8         0.0000000000       -0.0000000000        0.0794302300
H     2    1         0.0000000000        0.7142826200       -0.4681100300
H     3    1         0.0000000000       -0.7142826200       -0.4681100300
[GTO]
   1 0
 s    3  1.00
  0.1307093200D+03  0.1543289687D+00
  0.2380886100D+02  0.5353281356D+00
  0.6443608300D+01  0.4446345363D+00
 s    3  1.00
  0.5033151300D+01 -0.9996722866D-01
  0.1169596100D+01  0.3995128246D+00
  0.3803890000D+00  0.7001154606D+00
 p    3  1.00
  0.5033151300D+01  0.1559162685D+00
  0.1169596100D+01  0.6076837141D+00
  0.3803890000D+00  0.3919573862D+00
  
   2 0
 s    3  1.00
  0.3425250900D+01  0.1543289707D+00
  0.6239137300D+00  0.5353281424D+00
  0.1688554000D+00  0.4446345420D+00
  
   3 0
 s    3  1.00
  0.3425250900D+01  0.1543289707D+00
  0.6239137300D+00  0.5353281424D+00
  0.1688554000D+00  0.4446345420D+00


[MO]
 Sym=      1.1
 Ene=     -20.2354
 Spin= Alpha
 Occup=    2.000000
1 0.99398363177721
2 0.027905642483608
3 -0.000000000000000
4 0.000000000000000
5 -0.004925946942620
6 -0.006664737502980
7 -0.006664737502980
 Sym=      2.1
 Ene=      -1.2997
 Spin= Alpha
 Occup=    2.000000
1 -0.23086501531498
2 0.81323867643884
3 -0.000000000000000
4 -0.000000000000000
5 -0.14991656813615
6 0.16155491778990
7 0.16155491778990
 Sym=      3.1
 Ene=      -0.6503
 Spin= Alpha
 Occup=    2.000000
1 -0.000000000000000
2 0.000000000000001
3 -0.000000000000000
4 0.60915786106732
5 0.000000000000002
6 0.44036286658449
7 -0.44036286658448
 Sym=      4.1
 Ene=      -0.4589
 Spin= Alpha
 Occup=    2.000000
1 -0.10532143754430
2 0.55077490036341
3 -0.000000000000000
4 -0.000000000000000
5 0.79166932478111
6 -0.25320187924583
7 -0.25320187924582
 Sym=      5.1
 Ene=      -0.3959
 Spin= Alpha
 Occup=    2.000000
1 -0.000000000000000
2 0.000000000000000
3 1.00000000000000
4 -0.000000000000000
5 0.000000000000000
6 0.000000000000000
7 -0.000000000000001
 Sym=      6.1
 Ene=       0.6639
 Spin= Alpha
 Occup=    0.000000
1 0.14055960345939
2 -0.99355632364194
3 0.000000000000000
4 0.000000000000002
5 0.74334584306706
6 0.84307560548584
7 0.84307560548584
 Sym=      7.1
 Ene=       0.8150
 Spin= Alpha
 Occup=    0.000000
1 0.000000000000000
2 -0.000000000000002
3 -0.000000000000000
4 -1.02780287838617
5 0.000000000000003
6 0.89615701988367
7 -0.89615701988366
