[Molden Format]
[Atoms] Angs
O     1    8         0.0000000000       -0.0000000000        0.4290407800
H     2    1         0.0000000000        1.1703600100       -0.4681100300
H     3    1         0.0000000000       -1.1703600100       -0.4681100300
[GTO]
   1 0
 s    3  1.00
  0.1307093200D+03  0.1543289687D+00
  0.2380886100D+02  0.5353281356D+00
  0.6443608300D+01  0.4446345363D+00
 s    3  1.00
  0.5033151300D+01 -0.9996722866D-01
  0.1169596100D+01  0.3995128246D+00
  0.3803890000D+00  0.7001154606D+00
 p    3  1.00
  0.5033151300D+01  0.1559162685D+00
  0.1169596100D+01  0.6076837141D+00
  0.3803890000D+00  0.3919573862D+00
  
   2 0
 s    3  1.00
  0.3425250900D+01  0.1543289707D+00
  0.6239137300D+00  0.5353281424D+00
  0.1688554000D+00  0.4446345420D+00
  
   3 0
 s    3  1.00
  0.3425250900D+01  0.1543289707D+00
  0.6239137300D+00  0.5353281424D+00
  0.1688554000D+00  0.4446345420D+00


[MO]
 Sym=      1.1
 Ene=     -20.3070
 Spin= Alpha
 Occup=    2.000000
1 0.99488297722593
2 0.021113381637823
3 0.000000000000000
4 -0.000000000000000
5 -0.001368726077881
6 -0.002359691452392
7 -0.002359691452393
 Sym=      2.1
 Ene=      -1.1444
 Spin= Alpha
 Occup=    2.000000
1 -0.25376834103371
2 0.97917088544952
3 0.000000000000000
4 -0.000000000000000
5 -0.019922513566795
6 0.093373162876189
7 0.093373162876189
 Sym=      4.1
 Ene=      -0.3987
 Spin= Alpha
 Occup=    2.000000
1 -0.000000000000000
2 0.000000000000000
3 1.00000000000000
4 0.000000000000014
5 0.000000000000002
6 0.000000000000011
7 -0.000000000000013
 Sym=      5.1
 Ene=      -0.3943
 Spin= Alpha
 Occup=    2.000000
1 -0.041729059349873
2 0.20656341985481
3 0.000000000000015
4 -0.44617803737856
5 0.50218537557747
6 -0.62435846169745
7 0.037722917983492
 Sym=      3.1
 Ene=      -0.3943
 Spin= Alpha
 Occup=    2.000000
1 -0.041729059349875
2 0.20656341985482
3 -0.000000000000018
4 0.44617803737854
5 0.50218537557749
6 0.037722917983472
7 -0.62435846169745
 Sym=      6.1
 Ene=       0.2868
 Spin= Alpha
 Occup=    0.000000
1 0.046159345451316
2 -0.23841286522631
3 0.000000000000001
4 0.57540767940676
5 0.51391244613966
6 -0.000650052453390
7 0.83442441302391
 Sym=      7.1
 Ene=       0.2868
 Spin= Alpha
 Occup=    0.000000
1 0.046159345451317
2 -0.23841286522632
3 -0.000000000000001
4 -0.57540767940675
5 0.51391244613967
6 0.83442441302391
7 -0.000650052453375
