[Molden Format]
[Atoms] Angs
O     1    8         0.0000000000        0.0000000000        1.0528351300
H     2    1         0.0000000000        1.9841184000       -0.4681100300
H     3    1         0.0000000000       -1.9841184000       -0.4681100300
[GTO]
   1 0
 s    3  1.00
  0.1307093200D+03  0.1543289687D+00
  0.2380886100D+02  0.5353281356D+00
  0.6443608300D+01  0.4446345363D+00
 s    3  1.00
  0.5033151300D+01 -0.9996722866D-01
  0.1169596100D+01  0.3995128246D+00
  0.3803890000D+00  0.7001154606D+00
 p    3  1.00
  0.5033151300D+01  0.1559162685D+00
  0.1169596100D+01  0.6076837141D+00
  0.3803890000D+00  0.3919573862D+00
  
   2 0
 s    3  1.00
  0.3425250900D+01  0.1543289707D+00
  0.6239137300D+00  0.5353281424D+00
  0.1688554000D+00  0.4446345420D+00
  
   3 0
 s    3  1.00
  0.3425250900D+01  0.1543289707D+00
  0.6239137300D+00  0.5353281424D+00
  0.1688554000D+00  0.4446345420D+00


[MO]
 Sym=      1.1
 Ene=     -20.2973
 Spin= Alpha
 Occup=    2.000000
1 0.99504009807909
2 0.020148278692856
3 0.000000000000000
4 -0.000000000000000
5 -0.000184844304484
6 -0.000271807798856
7 -0.000271807798856
 Sym=      2.1
 Ene=      -1.1220
 Spin= Alpha
 Occup=    2.000000
1 -0.26272289381686
2 1.02711714209748
3 0.000000000000000
4 0.000000000000000
5 0.003287252895639
6 0.024572076773187
7 0.024572076773187
 Sym=      3.1
 Ene=      -0.4082
 Spin= Alpha
 Occup=    2.000000
1 0.000000000000000
2 -0.000000000000000
3 1.00000000000000
4 0.000000000000003
5 0.000000000000002
6 0.000000000000000
7 0.000000000000000
 Sym=      4.1
 Ene=      -0.2258
 Spin= Alpha
 Occup=    2.000000
1 -0.000000000000000
2 0.000000000000001
3 -0.000000000000002
4 0.69682208673868
5 0.000000000000010
6 0.49048766633538
7 -0.49048766633540
 Sym=      5.1
 Ene=      -0.2177
 Spin= Alpha
 Occup=    2.000000
1 0.011002558382390
2 -0.049457485630965
3 0.000000000000002
4 0.000000000000010
5 -0.69848298007290
6 0.49241738429167
7 0.49241738429165
 Sym=      6.1
 Ene=       0.0453
 Spin= Alpha
 Occup=    0.000000
1 0.012462533584523
2 -0.054377615969104
3 -0.000000000000002
4 0.000000000000014
5 0.71613303627950
6 0.50695488580065
7 0.50695488580066
 Sym=      7.1
 Ene=       0.0534
 Spin= Alpha
 Occup=    0.000000
1 -0.000000000000000
2 0.000000000000001
3 -0.000000000000002
4 0.71811907613876
5 -0.000000000000013
6 -0.51089393513102
7 0.51089393513101
