[Molden Format]
[Atoms] Angs
O     1    8         0.0000000000        0.0000000000        0.1170280000
H     2    1         0.0000000000        0.7633300000       -0.4681100000
H     3    1         0.0000000000       -0.7633300000       -0.4681100000
[GTO]
   1 0
 s    3  1.00
  0.1307093200D+03  0.1543289687D+00
  0.2380886100D+02  0.5353281356D+00
  0.6443608300D+01  0.4446345363D+00
 s    3  1.00
  0.5033151300D+01 -0.9996722866D-01
  0.1169596100D+01  0.3995128246D+00
  0.3803890000D+00  0.7001154606D+00
 p    3  1.00
  0.5033151300D+01  0.1559162685D+00
  0.1169596100D+01  0.6076837141D+00
  0.3803890000D+00  0.3919573862D+00
  
   2 0
 s    3  1.00
  0.3425250900D+01  0.1543289707D+00
  0.6239137300D+00  0.5353281424D+00
  0.1688554000D+00  0.4446345420D+00
  
   3 0
 s    3  1.00
  0.3425250900D+01  0.1543289707D+00
  0.6239137300D+00  0.5353281424D+00
  0.1688554000D+00  0.4446345420D+00


[MO]
 Sym=      1.1
 Ene=     -20.2415
 Spin= Alpha
 Occup=    2.000000
1 0.99413920030959
2 0.026472033425229
3 0.000000000000000
4 -0.000000000000000
5 -0.004284353330196
6 -0.005924554308423
7 -0.005924554308423
 Sym=      2.1
 Ene=      -1.2654
 Spin= Alpha
 Occup=    2.000000
1 -0.23300733150807
2 0.83529690027397
3 0.000000000000000
4 -0.000000000000000
5 -0.12743149615653
6 0.15850077626427
7 0.15850077626427
 Sym=      4.1
 Ene=      -0.5338
 Spin= Alpha
 Occup=    2.000000
1 0.072543625641110
2 -0.37741790876667
3 0.000000000000000
4 0.42815725395958
5 -0.54971072316223
6 0.51199717346116
7 -0.11733206056817
 Sym=      3.1
 Ene=      -0.5338
 Spin= Alpha
 Occup=    2.000000
1 -0.072543625641110
2 0.37741790876667
3 0.000000000000000
4 0.42815725395959
5 0.54971072316223
6 0.11733206056817
7 -0.51199717346116
 Sym=      5.1
 Ene=      -0.3905
 Spin= Alpha
 Occup=    2.000000
1 0.000000000000000
2 -0.000000000000000
3 1.00000000000000
4 0.000000000000000
5 -0.000000000000000
6 -0.000000000000000
7 0.000000000000001
 Sym=      7.1
 Ene=       0.6693
 Spin= Alpha
 Occup=    0.000000
1 0.093322804877650
2 -0.62079818411696
3 0.000000000000000
4 -0.69968497612600
5 0.52261751636086
6 1.15152470054645
7 -0.028075096636162
 Sym=      6.1
 Ene=       0.6693
 Spin= Alpha
 Occup=    0.000000
1 -0.093322804877651
2 0.62079818411697
3 0.000000000000000
4 -0.69968497612599
5 -0.52261751636086
6 0.028075096636151
7 -1.15152470054645
