[Molden Format]
[Atoms] Angs
O     1    8         0.0000000000       -0.0000001200        0.2730971400
H     2    1         0.0000000000        0.9669268800       -0.4681101200
H     3    1         0.0000000000       -0.9669268800       -0.4681099400
[GTO]
   1 0
 s    3  1.00
  0.1307093200D+03  0.1543289687D+00
  0.2380886100D+02  0.5353281356D+00
  0.6443608300D+01  0.4446345363D+00
 s    3  1.00
  0.5033151300D+01 -0.9996722866D-01
  0.1169596100D+01  0.3995128246D+00
  0.3803890000D+00  0.7001154606D+00
 p    3  1.00
  0.5033151300D+01  0.1559162685D+00
  0.1169596100D+01  0.6076837141D+00
  0.3803890000D+00  0.3919573862D+00
  
   2 0
 s    3  1.00
  0.3425250900D+01  0.1543289707D+00
  0.6239137300D+00  0.5353281424D+00
  0.1688554000D+00  0.4446345420D+00
  
   3 0
 s    3  1.00
  0.3425250900D+01  0.1543289707D+00
  0.6239137300D+00  0.5353281424D+00
  0.1688554000D+00  0.4446345420D+00


[MO]
 Sym=      1.1
 Ene=     -20.2795
 Spin= Alpha
 Occup=    2.000000
1 0.99462414212698
2 0.022754485412449
3 -0.000000000000000
4 -0.000000001116644
5 -0.002412156550535
6 -0.003729781927151
7 -0.003729784233887
 Sym=      2.1
 Ene=      -1.1777
 Spin= Alpha
 Occup=    2.000000
1 -0.24468190288719
2 0.92370464311756
3 -0.000000000000000
4 -0.000000042395284
5 -0.057457161910237
6 0.12797743880083
7 0.12797751660163
 Sym=      3.1
 Ene=      -0.4589
 Spin= Alpha
 Occup=    2.000000
1 -0.058535425851883
2 0.29590368937407
3 0.000000000000001
4 0.43226124407796
5 0.51828992100257
6 0.067569129920409
7 -0.58011547224011
 Sym=      4.1
 Ene=      -0.4589
 Spin= Alpha
 Occup=    2.000000
1 -0.058535379918668
2 0.29590344965797
3 -0.000000000000002
4 -0.43226131220386
5 0.51828982698374
6 -0.58011554913882
7 0.067569223961318
 Sym=      5.1
 Ene=      -0.3890
 Spin= Alpha
 Occup=    2.000000
1 -0.000000000000000
2 0.000000000000000
3 1.00000000000000
4 -0.000000000000000
5 0.000000000000000
6 -0.000000000000002
7 0.000000000000001
 Sym=      7.1
 Ene=       0.4381
 Spin= Alpha
 Occup=    0.000000
1 0.067562459909643
2 -0.38015317615478
3 0.000000000000001
4 -0.62104342063816
5 0.51708978737751
6 0.94121130227214
7 -0.007938536494454
 Sym=      6.1
 Ene=       0.4381
 Spin= Alpha
 Occup=    0.000000
1 -0.067562488292839
2 0.38015339219435
3 0.000000000000000
4 -0.62104345807558
5 -0.51708982628453
6 0.007938520769946
7 -0.94121146965653
