[Molden Format]
[Atoms] Angs
O     1    8         0.0000000000       -0.0000001200        0.2730971400
H     2    1         0.0000000000        0.9669268800       -0.4681101200
H     3    1         0.0000000000       -0.9669268800       -0.4681099400
[GTO]
   1 0
 s    3  1.00
  0.1307093200D+03  0.1543289687D+00
  0.2380886100D+02  0.5353281356D+00
  0.6443608300D+01  0.4446345363D+00
 s    3  1.00
  0.5033151300D+01 -0.9996722866D-01
  0.1169596100D+01  0.3995128246D+00
  0.3803890000D+00  0.7001154606D+00
 p    3  1.00
  0.5033151300D+01  0.1559162685D+00
  0.1169596100D+01  0.6076837141D+00
  0.3803890000D+00  0.3919573862D+00
  
   2 0
 s    3  1.00
  0.3425250900D+01  0.1543289707D+00
  0.6239137300D+00  0.5353281424D+00
  0.1688554000D+00  0.4446345420D+00
  
   3 0
 s    3  1.00
  0.3425250900D+01  0.1543289707D+00
  0.6239137300D+00  0.5353281424D+00
  0.1688554000D+00  0.4446345420D+00


[MO]
 Sym=      1.1
 Ene=     -20.2795
 Spin= Alpha
 Occup=    2.000000
1 0.99462414212698
2 0.022754485412449
3 -0.000000000000000
4 -0.000000001116644
5 -0.002412156550535
6 -0.003729781927151
7 -0.003729784233887
 Sym=      2.1
 Ene=      -1.1777
 Spin= Alpha
 Occup=    2.000000
1 -0.24468190288719
2 0.92370464311756
3 -0.000000000000000
4 -0.000000042395284
5 -0.057457161910237
6 0.12797743880083
7 0.12797751660163
 Sym=      3.1
 Ene=      -0.5002
 Spin= Alpha
 Occup=    2.000000
1 -0.000000064628767
2 0.000000332022383
3 0.000000000000002
4 0.61130976203554
5 0.000000351138874
6 0.45798208788185
7 -0.45798238150623
 Sym=      4.1
 Ene=      -0.4176
 Spin= Alpha
 Occup=    2.000000
1 -0.082781560639311
2 0.41847084116406
3 -0.000000000000001
4 -0.000000285580788
5 0.73297256904168
6 -0.36242522656436
7 -0.36242474996747
 Sym=      5.1
 Ene=      -0.3890
 Spin= Alpha
 Occup=    2.000000
1 -0.000000000000000
2 0.000000000000000
3 1.00000000000000
4 -0.000000000000000
5 0.000000000000001
6 -0.000000000000002
7 0.000000000000001
 Sym=      6.1
 Ene=       0.3889
 Spin= Alpha
 Occup=    0.000000
1 0.095547767181385
2 -0.53761793025990
3 0.000000000000000
4 -0.000000876791276
5 0.73127541778490
6 0.65992420273215
7 0.65992292950081
 Sym=      7.1
 Ene=       0.4874
 Spin= Alpha
 Occup=    0.000000
1 -0.000000118334765
2 0.000000705668969
3 0.000000000000001
4 -0.87828805476088
5 -0.000000779581779
6 0.67114959754526
7 -0.67115108440183
