[Molden Format]
[Atoms] Angs
O     1    8         0.0000000000        0.0000000000        1.0528351300
H     2    1         0.0000000000        1.9841184000       -0.4681100300
H     3    1         0.0000000000       -1.9841184000       -0.4681100300
[GTO]
   1 0
 s    3  1.00
  0.1307093200D+03  0.1543289687D+00
  0.2380886100D+02  0.5353281356D+00
  0.6443608300D+01  0.4446345363D+00
 s    3  1.00
  0.5033151300D+01 -0.9996722866D-01
  0.1169596100D+01  0.3995128246D+00
  0.3803890000D+00  0.7001154606D+00
 p    3  1.00
  0.5033151300D+01  0.1559162685D+00
  0.1169596100D+01  0.6076837141D+00
  0.3803890000D+00  0.3919573862D+00
  
   2 0
 s    3  1.00
  0.3425250900D+01  0.1543289707D+00
  0.6239137300D+00  0.5353281424D+00
  0.1688554000D+00  0.4446345420D+00
  
   3 0
 s    3  1.00
  0.3425250900D+01  0.1543289707D+00
  0.6239137300D+00  0.5353281424D+00
  0.1688554000D+00  0.4446345420D+00


[MO]
 Sym=      1.1
 Ene=     -20.2973
 Spin= Alpha
 Occup=    2.000000
1 0.99504009807909
2 0.020148278692856
3 0.000000000000000
4 -0.000000000000000
5 -0.000184844304484
6 -0.000271807798856
7 -0.000271807798856
 Sym=      2.1
 Ene=      -1.1220
 Spin= Alpha
 Occup=    2.000000
1 -0.26272289381685
2 1.02711714209748
3 0.000000000000000
4 0.000000000000000
5 0.003287252895639
6 0.024572076773187
7 0.024572076773187
 Sym=      3.1
 Ene=      -0.4082
 Spin= Alpha
 Occup=    2.000000
1 0.000000000000000
2 -0.000000000000000
3 1.00000000000000
4 0.000000000000003
5 0.000000000000002
6 0.000000000000000
7 0.000000000000000
 Sym=      4.1
 Ene=      -0.2217
 Spin= Alpha
 Occup=    2.000000
1 -0.007779983642589
2 0.034971723470092
3 -0.000000000000003
4 0.49272762281347
5 0.49390205175294
6 -0.001364516652666
7 -0.69501882656089
 Sym=      5.1
 Ene=      -0.2217
 Spin= Alpha
 Occup=    2.000000
1 0.007779983642589
2 -0.034971723470091
3 -0.000000000000001
4 0.49272762281349
5 -0.49390205175293
6 0.69501882656089
7 0.001364516652643
 Sym=      6.1
 Ene=       0.0494
 Spin= Alpha
 Occup=    0.000000
1 0.008812342008381
2 -0.038450780996511
3 -0.000000000000003
4 0.50778686843714
5 0.50638252618494
6 -0.002785328492938
7 0.71972780350352
 Sym=      7.1
 Ene=       0.0494
 Spin= Alpha
 Occup=    0.000000
1 -0.008812342008382
2 0.038450780996512
3 -0.000000000000000
4 0.50778686843712
5 -0.50638252618495
6 -0.71972780350352
7 0.002785328492913
