[Molden Format]
[Atoms] Angs
O     1    8         0.0000000000        0.0000000000        0.7409379600
H     2    1         0.0000000000        1.5772392000       -0.4681100300
H     3    1         0.0000000000       -1.5772392000       -0.4681100300
[GTO]
   1 0
 s    3  1.00
  0.1307093200D+03  0.1543289687D+00
  0.2380886100D+02  0.5353281356D+00
  0.6443608300D+01  0.4446345363D+00
 s    3  1.00
  0.5033151300D+01 -0.9996722866D-01
  0.1169596100D+01  0.3995128246D+00
  0.3803890000D+00  0.7001154606D+00
 p    3  1.00
  0.5033151300D+01  0.1559162685D+00
  0.1169596100D+01  0.6076837141D+00
  0.3803890000D+00  0.3919573862D+00
  
   2 0
 s    3  1.00
  0.3425250900D+01  0.1543289707D+00
  0.6239137300D+00  0.5353281424D+00
  0.1688554000D+00  0.4446345420D+00
  
   3 0
 s    3  1.00
  0.3425250900D+01  0.1543289707D+00
  0.6239137300D+00  0.5353281424D+00
  0.1688554000D+00  0.4446345420D+00


[MO]
 Sym=      1.1
 Ene=     -20.3086
 Spin= Alpha
 Occup=    2.000000
1 0.99503131739653
2 0.020221294191190
3 0.000000000000000
4 -0.000000000000000
5 -0.000463877458103
6 -0.000868910500545
7 -0.000868910500545
 Sym=      2.1
 Ene=      -1.1249
 Spin= Alpha
 Occup=    2.000000
1 -0.26105399464439
2 1.01890358070300
3 -0.000000000000001
4 0.000000000000000
5 0.001794274454812
6 0.047941135773429
7 0.047941135773429
 Sym=      3.1
 Ene=      -0.4065
 Spin= Alpha
 Occup=    2.000000
1 0.000000000000000
2 -0.000000000000000
3 1.00000000000000
4 -0.000000000000008
5 0.000000000000000
6 -0.000000000000000
7 0.000000000000002
 Sym=      4.1
 Ene=      -0.3043
 Spin= Alpha
 Occup=    2.000000
1 0.023655881146903
2 -0.11290913502144
3 -0.000000000000000
4 0.000000000000002
5 -0.75745979175746
6 0.42256898556327
7 0.42256898556327
 Sym=      5.1
 Ene=      -0.2770
 Spin= Alpha
 Occup=    2.000000
1 -0.000000000000000
2 0.000000000000001
3 0.000000000000007
4 0.60660464575449
5 0.000000000000002
6 0.52542884661632
7 -0.52542884661632
 Sym=      6.1
 Ene=       0.0896
 Spin= Alpha
 Occup=    0.000000
1 0.030942828641069
2 -0.14594087531462
3 -0.000000000000001
4 0.000000000000001
5 0.65708881004760
6 0.56709375143577
7 0.56709375143577
 Sym=      7.1
 Ene=       0.1585
 Spin= Alpha
 Occup=    0.000000
1 0.000000000000000
2 -0.000000000000000
3 0.000000000000005
4 0.80098928475118
5 -0.000000000000000
6 -0.48518613704122
7 0.48518613704122
