[Molden Format]
[Atoms] Angs
O     1    8         0.0000000000        0.0000000000        0.8968871600
H     2    1         0.0000000000        1.7806795900       -0.4681100300
H     3    1         0.0000000000       -1.7806795900       -0.4681100300
[GTO]
   1 0
 s    3  1.00
  0.1307093200D+03  0.1543289687D+00
  0.2380886100D+02  0.5353281356D+00
  0.6443608300D+01  0.4446345363D+00
 s    3  1.00
  0.5033151300D+01 -0.9996722866D-01
  0.1169596100D+01  0.3995128246D+00
  0.3803890000D+00  0.7001154606D+00
 p    3  1.00
  0.5033151300D+01  0.1559162685D+00
  0.1169596100D+01  0.6076837141D+00
  0.3803890000D+00  0.3919573862D+00
  
   2 0
 s    3  1.00
  0.3425250900D+01  0.1543289707D+00
  0.6239137300D+00  0.5353281424D+00
  0.1688554000D+00  0.4446345420D+00
  
   3 0
 s    3  1.00
  0.3425250900D+01  0.1543289707D+00
  0.6239137300D+00  0.5353281424D+00
  0.1688554000D+00  0.4446345420D+00


[MO]
 Sym=      1.1
 Ene=     -20.3062
 Spin= Alpha
 Occup=    2.000000
1 0.99504312797698
2 0.020145780496494
3 -0.000000000000000
4 0.000000000000000
5 -0.000289846811160
6 -0.000497552081309
7 -0.000497552081309
 Sym=      2.1
 Ene=      -1.1248
 Spin= Alpha
 Occup=    2.000000
1 -0.26219389397717
2 1.02465868344848
3 0.000000000000000
4 -0.000000000000000
5 0.003569088550991
6 0.033903563577797
7 0.033903563577797
 Sym=      3.1
 Ene=      -0.4097
 Spin= Alpha
 Occup=    2.000000
1 0.000000000000000
2 -0.000000000000000
3 1.00000000000000
4 0.000000000000003
5 -0.000000000000040
6 0.000000000000003
7 0.000000000000002
 Sym=      4.1
 Ene=      -0.2513
 Spin= Alpha
 Occup=    2.000000
1 -0.012068949423264
2 0.056058283801869
3 0.000000000000020
4 0.48883924355671
5 0.48904303657036
6 -0.003060096912804
7 -0.68733964314128
 Sym=      5.1
 Ene=      -0.2513
 Spin= Alpha
 Occup=    2.000000
1 -0.012068949423263
2 0.056058283801867
3 0.000000000000024
4 -0.48883924355673
5 0.48904303657034
6 -0.68733964314128
7 -0.003060096912782
 Sym=      6.1
 Ene=       0.0784
 Spin= Alpha
 Occup=    0.000000
1 0.013267651486244
2 -0.060127652529422
3 0.000000000000016
4 0.51266010475121
5 0.51173325257737
6 -0.006310749885146
7 0.72892911239078
 Sym=      7.1
 Ene=       0.0784
 Spin= Alpha
 Occup=    0.000000
1 0.013267651486245
2 -0.060127652529424
3 0.000000000000019
4 -0.51266010475119
5 0.51173325257739
6 0.72892911239078
7 -0.006310749885124
