[Molden Format]
[Atoms] Angs
O     1    8         0.0073412159        0.0115855126        0.0166710163
H     2    1         0.9692024372        0.0115081719       -0.0078200394
H     3    1        -0.2365389285        0.9416773542       -0.0179265183
O     4    8        -0.9896335761       -1.2946708616        2.4154605712
H     5    1        -0.6983283146       -0.9050002981        1.5779806055
H     6    1        -1.5257484047       -2.0477946576        2.1550969159
[GTO]
   1 0
 s    3  1.00
  0.1307093200D+03  0.1543289687D+00
  0.2380886100D+02  0.5353281356D+00
  0.6443608300D+01  0.4446345363D+00
 s    3  1.00
  0.5033151300D+01 -0.9996722866D-01
  0.1169596100D+01  0.3995128246D+00
  0.3803890000D+00  0.7001154606D+00
 p    3  1.00
  0.5033151300D+01  0.1559162685D+00
  0.1169596100D+01  0.6076837141D+00
  0.3803890000D+00  0.3919573862D+00
  
   2 0
 s    3  1.00
  0.3425250900D+01  0.1543289707D+00
  0.6239137300D+00  0.5353281424D+00
  0.1688554000D+00  0.4446345420D+00
  
   3 0
 s    3  1.00
  0.3425250900D+01  0.1543289707D+00
  0.6239137300D+00  0.5353281424D+00
  0.1688554000D+00  0.4446345420D+00
  
   4 0
 s    3  1.00
  0.1307093200D+03  0.1543289687D+00
  0.2380886100D+02  0.5353281356D+00
  0.6443608300D+01  0.4446345363D+00
 s    3  1.00
  0.5033151300D+01 -0.9996722866D-01
  0.1169596100D+01  0.3995128246D+00
  0.3803890000D+00  0.7001154606D+00
 p    3  1.00
  0.5033151300D+01  0.1559162685D+00
  0.1169596100D+01  0.6076837141D+00
  0.3803890000D+00  0.3919573862D+00
  
   5 0
 s    3  1.00
  0.3425250900D+01  0.1543289707D+00
  0.6239137300D+00  0.5353281424D+00
  0.1688554000D+00  0.4446345420D+00
  
   6 0
 s    3  1.00
  0.3425250900D+01  0.1543289707D+00
  0.6239137300D+00  0.5353281424D+00
  0.1688554000D+00  0.4446345420D+00


[MO]
 Sym=      1.1
 Ene=     -20.2883
 Spin= Alpha
 Occup=    2.000000
1 0.99412919544247
2 0.026510048603277
3 0.002543229289380
4 0.003294807533465
5 -0.000094556659202
6 -0.005868755170971
7 -0.005869416601679
8 0.001024033682548
9 0.000504071543987
10 0.000130401127712
11 0.000175141497815
12 -0.000324683455148
13 -0.001091536611355
14 0.000067216921278
 Sym=      2.1
 Ene=     -20.2186
 Spin= Alpha
 Occup=    2.000000
1 -0.001149790979682
2 0.000316349355623
3 -0.000220417151122
4 -0.000285362613459
5 0.000378156116843
6 0.000158386531493
7 0.000156592791884
8 0.99412116894912
9 0.026542987307524
10 -0.000923197265805
11 -0.001367134237884
12 -0.003960527540489
13 -0.005977957924885
14 -0.005956757160749
 Sym=      3.1
 Ene=      -1.2974
 Spin= Alpha
 Occup=    2.000000
1 -0.23264074571524
2 0.83520297032003
3 0.075522063983069
4 0.097802925975609
5 -0.001363182625503
6 0.15447279788432
7 0.15444329083767
8 -0.018424394738234
9 0.063439940873464
10 -0.000707057856980
11 -0.001268391544691
12 -0.011663629676171
13 0.025433627722483
14 0.010813984006434
 Sym=      4.1
 Ene=      -1.2407
 Spin= Alpha
 Occup=    2.000000
1 0.021285773938408
2 -0.078780126774955
3 -0.009148323316330
4 -0.011874769299490
5 0.004395949734181
6 -0.017483379485997
7 -0.017504773617470
8 -0.23236453318985
9 0.83337249657459
10 -0.026501107095358
11 -0.039337624610210
12 -0.11506673109536
13 0.15361299128148
14 0.16211657570467
 Sym=      5.1
 Ene=      -0.4310
 Spin= Alpha
 Occup=    2.000000
1 0.005496834783782
2 -0.026360364161062
3 0.043086259772700
4 0.066563353110454
5 0.99013030461751
6 0.006194974724986
7 0.006231072988006
8 0.011338309187097
9 -0.059377552794512
10 -0.004667618259356
11 -0.008126731209172
12 0.015954696830044
13 0.069217998701621
14 -0.002351743203480
 Sym=      6.1
 Ene=      -0.3709
 Spin= Alpha
 Occup=    2.000000
1 0.000024684036525
2 -0.000125315443765
3 -0.000109860764832
4 -0.000087749872123
5 -0.001157766841532
6 0.001003651604473
7 -0.000867155752470
8 0.000001443269949
9 0.000013907210206
10 0.81271330434628
11 -0.58254489474071
12 0.011523467025717
13 -0.000094055729389
14 0.000003555843228
 Sym=      8.1
 Ene=      -0.4787
 Spin= Alpha
 Occup=    1.983166
1 -0.011980387632905
2 0.060799195808554
3 -0.003956372755225
4 -0.004517268228415
5 0.070093425626546
6 -0.004016356382010
7 -0.004318221301166
8 -0.080866022567340
9 0.42145242162334
10 -0.075690120231856
11 -0.091447340397601
12 0.71547462086594
13 -0.48482857537821
14 0.033458891811004
 Sym=     10.1
 Ene=      -0.5610
 Spin= Alpha
 Occup=    1.980813
1 -0.072083611812193
2 0.37828622667884
3 0.013990008887081
4 -0.69030256242095
5 0.048499658230416
6 0.10535117484939
7 -0.51675480254249
8 0.006155853560053
9 -0.032709508979886
10 -0.008354006546296
11 -0.008635480518755
12 0.031238347389346
13 0.038598660285224
14 0.000725394987124
 Sym=      9.1
 Ene=      -0.5610
 Spin= Alpha
 Occup=    1.980804
1 -0.072108733773431
2 0.37838726895595
3 -0.67167290660777
4 -0.16130976083589
5 0.042824947702698
6 -0.51685352378270
7 0.10542253732895
8 0.006080704362267
9 -0.032398859002544
10 -0.005985551267444
11 -0.010269236065522
12 0.031009822870104
13 0.038533051553252
14 0.000743018879259
 Sym=      7.1
 Ene=      -0.5272
 Spin= Alpha
 Occup=    1.979450
1 -0.004360290037212
2 0.021066763744135
3 -0.003251942654345
4 -0.004078459010675
5 0.017666443797342
6 0.000345471882337
7 0.000278926350201
8 0.065023834526945
9 -0.34156214642815
10 -0.35767753413861
11 -0.50370863638785
12 -0.23938464584257
13 -0.17419822921759
14 0.53872900247141
 Sym=     11.1
 Ene=       0.6905
 Spin= Alpha
 Occup=    0.019623
1 0.000831417861962
2 -0.003342650577050
3 0.002431168787935
4 0.003168860054053
5 -0.005405790937906
6 0.001333137336052
7 0.001404421533576
8 0.091691517882439
9 -0.61177549373491
10 0.49576044267644
11 0.69622810875907
12 0.23114224541049
13 -0.037468378706589
14 1.14578151961223
 Sym=     13.1
 Ene=       0.6407
 Spin= Alpha
 Occup=    0.019085
1 0.091551763596001
2 -0.61187721589189
3 -0.87605559980226
4 0.004056282606335
5 0.025895813589606
6 1.15128290154567
7 -0.032261724362627
8 -0.001211973314102
9 0.011211002968642
10 -0.001323572804580
11 0.000296762824218
12 0.003917382422861
13 -0.031896013165438
14 0.002061557346544
 Sym=     14.1
 Ene=       0.6408
 Spin= Alpha
 Occup=    0.019076
1 -0.091566001726116
2 0.61195925029707
3 -0.22598448981715
4 0.84605372942092
5 -0.035088063481683
6 0.032234229847435
7 -1.15131755360151
8 0.001218305738044
9 -0.011235708365222
10 -0.000414600726889
11 0.000981175170959
12 -0.004006372226929
13 0.031866392154737
14 -0.002093837996123
 Sym=     12.1
 Ene=       0.7208
 Spin= Alpha
 Occup=    0.017983
1 0.022353362407489
2 -0.11453837439785
3 0.058617549248910
4 0.075411984593719
5 -0.13198054863395
6 -0.005271441559085
7 -0.004712672856926
8 0.092731400535554
9 -0.61681066127705
10 -0.26156963204916
11 -0.35009942719190
12 0.74525885357586
13 1.16426443645703
14 -0.029981070890291
