[Molden Format]
[Atoms] Angs
O     1    8         0.0000000000        0.0000000000        0.7409379600
H     2    1         0.0000000000        1.5772392000       -0.4681100300
H     3    1         0.0000000000       -1.5772392000       -0.4681100300
[GTO]
   1 0
 s    3  1.00
  0.1307093200D+03  0.1543289687D+00
  0.2380886100D+02  0.5353281356D+00
  0.6443608300D+01  0.4446345363D+00
 s    3  1.00
  0.5033151300D+01 -0.9996722866D-01
  0.1169596100D+01  0.3995128246D+00
  0.3803890000D+00  0.7001154606D+00
 p    3  1.00
  0.5033151300D+01  0.1559162685D+00
  0.1169596100D+01  0.6076837141D+00
  0.3803890000D+00  0.3919573862D+00
  
   2 0
 s    3  1.00
  0.3425250900D+01  0.1543289707D+00
  0.6239137300D+00  0.5353281424D+00
  0.1688554000D+00  0.4446345420D+00
  
   3 0
 s    3  1.00
  0.3425250900D+01  0.1543289707D+00
  0.6239137300D+00  0.5353281424D+00
  0.1688554000D+00  0.4446345420D+00


[MO]
 Sym=      1.1
 Ene=     -20.3086
 Spin= Alpha
 Occup=    2.000000
1 0.99503131739653
2 0.020221294191190
3 0.000000000000000
4 -0.000000000000000
5 -0.000463877458103
6 -0.000868910500545
7 -0.000868910500545
 Sym=      2.1
 Ene=      -1.1249
 Spin= Alpha
 Occup=    2.000000
1 -0.26105399464439
2 1.01890358070300
3 -0.000000000000001
4 0.000000000000000
5 0.001794274454812
6 0.047941135773429
7 0.047941135773429
 Sym=      3.1
 Ene=      -0.4065
 Spin= Alpha
 Occup=    2.000000
1 -0.000000000000000
2 0.000000000000000
3 1.00000000000000
4 -0.000000000000008
5 0.000000000000000
6 -0.000000000000000
7 0.000000000000002
 Sym=      4.1
 Ene=      -0.2907
 Spin= Alpha
 Occup=    2.000000
1 -0.016727233973918
2 0.079838815031571
3 0.000000000000005
4 0.42893425851226
5 0.53560495522785
6 0.072732905262514
7 -0.67033569568434
 Sym=      5.1
 Ene=      -0.2907
 Spin= Alpha
 Occup=    2.000000
1 0.016727233973918
2 -0.079838815031570
3 0.000000000000004
4 0.42893425851227
5 -0.53560495522785
6 0.67033569568434
7 -0.072732905262521
 Sym=      6.1
 Ene=       0.1240
 Spin= Alpha
 Occup=    0.000000
1 0.021879883961193
2 -0.10319578258727
3 0.000000000000002
4 0.56638495490532
5 0.46463195342646
6 0.057917429569199
7 0.74407424484830
 Sym=      7.1
 Ene=       0.1240
 Spin= Alpha
 Occup=    0.000000
1 0.021879883961193
2 -0.10319578258727
3 -0.000000000000004
4 -0.56638495490532
5 0.46463195342646
6 0.74407424484831
7 0.057917429569196
