[Molden Format]
[Atoms] Angs
O     1    8         0.0000000000        0.0000000000        0.5849923500
H     2    1         0.0000000000        1.3738034900       -0.4681100300
H     3    1         0.0000000000       -1.3738034900       -0.4681100300
[GTO]
   1 0
 s    3  1.00
  0.1307093200D+03  0.1543289687D+00
  0.2380886100D+02  0.5353281356D+00
  0.6443608300D+01  0.4446345363D+00
 s    3  1.00
  0.5033151300D+01 -0.9996722866D-01
  0.1169596100D+01  0.3995128246D+00
  0.3803890000D+00  0.7001154606D+00
 p    3  1.00
  0.5033151300D+01  0.1559162685D+00
  0.1169596100D+01  0.6076837141D+00
  0.3803890000D+00  0.3919573862D+00
  
   2 0
 s    3  1.00
  0.3425250900D+01  0.1543289707D+00
  0.6239137300D+00  0.5353281424D+00
  0.1688554000D+00  0.4446345420D+00
  
   3 0
 s    3  1.00
  0.3425250900D+01  0.1543289707D+00
  0.6239137300D+00  0.5353281424D+00
  0.1688554000D+00  0.4446345420D+00


[MO]
 Sym=      1.1
 Ene=     -20.3158
 Spin= Alpha
 Occup=    2.000000
1 0.99499584268559
2 0.020443531861768
3 -0.000000000000000
4 -0.000000000000000
5 -0.000790515643406
6 -0.001453520761533
7 -0.001453520761533
 Sym=      2.1
 Ene=      -1.1326
 Spin= Alpha
 Occup=    2.000000
1 -0.25868089620160
2 1.00646537858584
3 0.000000000000000
4 0.000000000000000
5 -0.003655101964213
6 0.066655636007606
7 0.066655636007605
 Sym=      3.1
 Ene=      -0.4060
 Spin= Alpha
 Occup=    2.000000
1 0.000000000000000
2 -0.000000000000000
3 1.00000000000000
4 -0.000000000000005
5 -0.000000000000001
6 -0.000000000000002
7 0.000000000000002
 Sym=      4.1
 Ene=      -0.3469
 Spin= Alpha
 Occup=    2.000000
1 0.000000000000001
2 -0.000000000000004
3 0.000000000000006
4 0.64904224288661
5 -0.000000000000014
6 0.47911229936915
7 -0.47911229936914
 Sym=      5.1
 Ene=      -0.3284
 Spin= Alpha
 Occup=    2.000000
1 0.039508351458515
2 -0.19246905579781
3 -0.000000000000001
4 -0.000000000000012
5 -0.70367569238180
6 0.44608179135651
7 0.44608179135653
 Sym=      6.1
 Ene=       0.1639
 Spin= Alpha
 Occup=    0.000000
1 0.043661382775500
2 -0.21434325641203
3 0.000000000000000
4 -0.000000000000007
5 0.72017419980766
6 0.55266216543070
7 0.55266216543069
 Sym=      7.1
 Ene=       0.2114
 Spin= Alpha
 Occup=    0.000000
1 -0.000000000000001
2 0.000000000000002
3 -0.000000000000002
4 -0.77664292180158
5 -0.000000000000007
6 0.54669044274627
7 -0.54669044274627
